<?xml version="1.0" encoding="ISO-8859-1"?>
<modeling>
 <generator>
  <i name="program" type="string">vasp </i>
  <i name="version" type="string">6.4.3  </i>
  <i name="subversion" type="string">19Mar24 (build Jan  2 2025 14:32:07) complex                          parallel </i>
  <i name="platform" type="string">LinuxGNU </i>
  <i name="date" type="string">2025 11 13 </i>
  <i name="time" type="string">19:18:35 </i>
 </generator>
 <incar>
  <i type="string" name="SYSTEM">Cubic CsPbI3 + I_i(0) defect in relaxed 40 atom supercell</i>
  <i type="string" name="ALGO">Normal</i>
  <i type="int" name="NELM">    60</i>
  <i type="int" name="IBRION">     3</i>
  <i name="EDIFF">      0.00000100</i>
  <i name="EDIFFG">     -0.02000000</i>
  <i type="int" name="NSW">   200</i>
  <i type="int" name="ISIF">     2</i>
  <i type="int" name="ISYM">     0</i>
  <i name="ENCUT">    400.00000000</i>
  <i name="POTIM">      0.00000000</i>
  <i type="string" name="LREAL">Auto	</i>
  <i type="int" name="ISMEAR">     0</i>
  <i name="SIGMA">      0.20000000</i>
  <i type="string" name="GGA">PE</i>
  <i type="int" name="IVDW">    12</i>
  <i name="SPRING">     -5.00000000</i>
 </incar>
 <primitive_cell>
  <structure name="primitive_cell" >
   <crystal>
    <varray name="basis" >
     <v>      12.57433319       0.00000000       0.00000000 </v>
     <v>       0.00000000      12.57433319       0.00000000 </v>
     <v>       0.00000000       0.00000000      12.57433319 </v>
    </varray>
    <i name="volume">   1988.17629733 </i>
    <varray name="rec_basis" >
     <v>       0.07952708       0.00000000       0.00000000 </v>
     <v>       0.00000000       0.07952708       0.00000000 </v>
     <v>       0.00000000       0.00000000       0.07952708 </v>
    </varray>
   </crystal>
   <varray name="positions" >
    <v>       0.00629561       0.00717134       0.00412859 </v>
    <v>       0.00605352       0.01697797       0.49320248 </v>
    <v>       0.01308640       0.49853486       0.99851766 </v>
    <v>       0.01768257       0.51890011       0.49760883 </v>
    <v>       0.50335755       0.98959287       0.99606013 </v>
    <v>       0.50066848       0.01470342       0.49110400 </v>
    <v>       0.52566871       0.49851965       0.01358091 </v>
    <v>       0.51282554       0.53095078       0.51080320 </v>
    <v>       0.26542385       0.26003324       0.21865923 </v>
    <v>       0.26022116       0.23757026       0.71963063 </v>
    <v>       0.25760145       0.71304246       0.23506507 </v>
    <v>       0.24426958       0.76020035       0.77170078 </v>
    <v>       0.75832992       0.27569793       0.31573683 </v>
    <v>       0.78442073       0.25327834       0.76345671 </v>
    <v>       0.76094785       0.78757053       0.27071824 </v>
    <v>       0.81029470       0.78293162       0.76456093 </v>
    <v>       0.95340839       0.04893840       0.24762771 </v>
    <v>       0.03623985       0.99409980       0.74830231 </v>
    <v>       0.02642082       0.47811925       0.24702374 </v>
    <v>       0.02101858       0.55398358       0.74725754 </v>
    <v>       0.54089373       0.05763738       0.24317787 </v>
    <v>       0.46737905       0.96183005       0.74201139 </v>
    <v>       0.50587824       0.44871241       0.26132504 </v>
    <v>       0.51554210       0.40669621       0.77903880 </v>
    <v>       0.25381272       0.96585168       0.04956060 </v>
    <v>       0.25265348       0.06769711       0.45814074 </v>
    <v>       0.27121850       0.53216924       0.98771385 </v>
    <v>       0.26631725       0.47259994       0.49895463 </v>
    <v>       0.75496185       0.02367679       0.96129065 </v>
    <v>       0.75436803       0.98179493       0.52944386 </v>
    <v>       0.77052047       0.42451232       0.02407350 </v>
    <v>       0.76610818       0.54414976       0.49394475 </v>
    <v>       0.06921141       0.25307249       0.96830311 </v>
    <v>       0.98148684       0.26777611       0.53854666 </v>
    <v>       0.98016904       0.75342387       0.03199760 </v>
    <v>       0.04711066       0.76830825       0.46174719 </v>
    <v>       0.45853854       0.22719595       0.97144317 </v>
    <v>       0.53939151       0.25332642       0.52907055 </v>
    <v>       0.55493287       0.74163986       0.04769590 </v>
    <v>       0.47621014       0.76370983       0.43026214 </v>
    <v>       0.53928326       0.65850895       0.72451250 </v>
   </varray>
  </structure>
  <varray name="primitive_index" >
   <v type="int" >        1 </v>
   <v type="int" >        2 </v>
   <v type="int" >        3 </v>
   <v type="int" >        4 </v>
   <v type="int" >        5 </v>
   <v type="int" >        6 </v>
   <v type="int" >        7 </v>
   <v type="int" >        8 </v>
   <v type="int" >        9 </v>
   <v type="int" >       10 </v>
   <v type="int" >       11 </v>
   <v type="int" >       12 </v>
   <v type="int" >       13 </v>
   <v type="int" >       14 </v>
   <v type="int" >       15 </v>
   <v type="int" >       16 </v>
   <v type="int" >       17 </v>
   <v type="int" >       18 </v>
   <v type="int" >       19 </v>
   <v type="int" >       20 </v>
   <v type="int" >       21 </v>
   <v type="int" >       22 </v>
   <v type="int" >       23 </v>
   <v type="int" >       24 </v>
   <v type="int" >       25 </v>
   <v type="int" >       26 </v>
   <v type="int" >       27 </v>
   <v type="int" >       28 </v>
   <v type="int" >       29 </v>
   <v type="int" >       30 </v>
   <v type="int" >       31 </v>
   <v type="int" >       32 </v>
   <v type="int" >       33 </v>
   <v type="int" >       34 </v>
   <v type="int" >       35 </v>
   <v type="int" >       36 </v>
   <v type="int" >       37 </v>
   <v type="int" >       38 </v>
   <v type="int" >       39 </v>
   <v type="int" >       40 </v>
   <v type="int" >       41 </v>
  </varray>
 </primitive_cell>
 <kpoints>
  <generation param="Monkhorst-Pack">
   <v type="int" name="divisions">       3        3        3 </v>
   <v name="usershift">      0.00000000       0.00000000       0.00000000 </v>
   <v name="genvec1">      0.33333333       0.00000000       0.00000000 </v>
   <v name="genvec2">      0.00000000       0.33333333       0.00000000 </v>
   <v name="genvec3">      0.00000000       0.00000000       0.33333333 </v>
   <v name="shift">      0.00000000       0.00000000       0.00000000 </v>
  </generation>
  <varray name="kpointlist" >
   <v>       0.00000000       0.00000000       0.00000000 </v>
   <v>       0.33333333       0.00000000       0.00000000 </v>
   <v>       0.00000000       0.33333333       0.00000000 </v>
   <v>       0.00000000       0.00000000       0.33333333 </v>
   <v>       0.33333333       0.33333333       0.00000000 </v>
   <v>       0.00000000       0.33333333       0.33333333 </v>
   <v>       0.33333333       0.00000000       0.33333333 </v>
   <v>      -0.33333333       0.33333333       0.00000000 </v>
   <v>      -0.33333333       0.00000000       0.33333333 </v>
   <v>       0.00000000      -0.33333333       0.33333333 </v>
   <v>       0.33333333       0.33333333       0.33333333 </v>
   <v>      -0.33333333       0.33333333       0.33333333 </v>
   <v>      -0.33333333      -0.33333333       0.33333333 </v>
   <v>       0.33333333      -0.33333333       0.33333333 </v>
  </varray>
  <varray name="weights" >
   <v>       0.03703704 </v>
   <v>       0.07407407 </v>
   <v>       0.07407407 </v>
   <v>       0.07407407 </v>
   <v>       0.07407407 </v>
   <v>       0.07407407 </v>
   <v>       0.07407407 </v>
   <v>       0.07407407 </v>
   <v>       0.07407407 </v>
   <v>       0.07407407 </v>
   <v>       0.07407407 </v>
   <v>       0.07407407 </v>
   <v>       0.07407407 </v>
   <v>       0.07407407 </v>
  </varray>
 </kpoints>
 <parameters>
  <separator name="general" >
   <i type="string" name="SYSTEM">Cubic CsPbI3 + I_i(0) defect in relaxed</i>
   <i type="logical" name="LCOMPAT"> F  </i>
  </separator>
  <separator name="electronic" >
   <i type="string" name="PREC">normal</i>
   <i name="ENMAX">    400.00000000</i>
   <i name="ENAUG">    407.93300000</i>
   <i name="EDIFF">      0.00000100</i>
   <i type="int" name="IALGO">    38</i>
   <i type="int" name="IWAVPR">    11</i>
   <i type="int" name="NBANDS">   170</i>
   <i type="int" name="NBANDSLOW">    -1</i>
   <i type="int" name="NBANDSHIGH">    -1</i>
   <i name="NELECT">    279.00000000</i>
   <i type="int" name="TURBO">     0</i>
   <i type="int" name="IRESTART">     0</i>
   <i type="int" name="NREBOOT">     0</i>
   <i type="int" name="NMIN">     0</i>
   <i name="EREF">      0.00000000</i>
   <separator name="electronic smearing" >
    <i type="int" name="ISMEAR">     0</i>
    <i name="SIGMA">      0.20000000</i>
    <i name="KSPACING">      0.50000000</i>
    <i type="logical" name="KGAMMA"> T  </i>
    <i type="logical" name="KBLOWUP"> T  </i>
   </separator>
   <separator name="electronic projectors" >
    <i type="logical" name="LREAL"> T  </i>
    <v name="ROPT">     -0.00050000     -0.00050000     -0.00050000</v>
    <i type="int" name="LMAXPAW">  -100</i>
    <i type="int" name="LMAXMIX">     2</i>
    <i type="logical" name="NLSPLINE"> F  </i>
   </separator>
   <separator name="electronic startup" >
    <i type="int" name="ISTART">     0</i>
    <i type="int" name="ICHARG">     2</i>
    <i type="int" name="INIWAV">     1</i>
   </separator>
   <separator name="electronic spin" >
    <i type="int" name="ISPIN">     1</i>
    <i type="logical" name="LNONCOLLINEAR"> F  </i>
    <v name="MAGMOM">      1.00000000      1.00000000      1.00000000      1.00000000      1.00000000      1.00000000      1.00000000      1.00000000      1.00000000      1.00000000      1.00000000      1.00000000      1.00000000      1.00000000      1.00000000      1.00000000      1.00000000      1.00000000      1.00000000      1.00000000
      1.00000000      1.00000000      1.00000000      1.00000000      1.00000000      1.00000000      1.00000000      1.00000000      1.00000000      1.00000000      1.00000000      1.00000000      1.00000000      1.00000000      1.00000000      1.00000000      1.00000000      1.00000000      1.00000000      1.00000000
      1.00000000</v>
    <i name="NUPDOWN">     -1.00000000</i>
    <i type="logical" name="LSORBIT"> F  </i>
    <v name="SAXIS">      0.00000000      0.00000000      1.00000000</v>
    <i type="logical" name="LSPIRAL"> F  </i>
    <v name="QSPIRAL">      0.00000000      0.00000000      0.00000000</v>
    <i type="logical" name="LZEROZ"> F  </i>
   </separator>
   <separator name="electronic exchange-correlation" >
    <i type="logical" name="LASPH"> F  </i>
   </separator>
   <separator name="electronic convergence" >
    <i type="int" name="NELM">    60</i>
    <i type="int" name="NELMDL">    -5</i>
    <i type="int" name="NELMIN">     2</i>
    <i name="ENINI">    400.00000000</i>
    <separator name="electronic convergence detail" >
     <i type="logical" name="LDIAG"> T  </i>
     <i type="logical" name="LSUBROT"> F  </i>
     <i name="WEIMIN">      0.00100000</i>
     <i name="EBREAK">      0.00000000</i>
     <i name="DEPER">      0.30000000</i>
     <i type="int" name="NRMM">     4</i>
     <i name="TIME">      0.40000000</i>
    </separator>
   </separator>
   <separator name="electronic mixer" >
    <i name="AMIX">      0.40000000</i>
    <i name="BMIX">      1.00000000</i>
    <i name="AMIN">      0.10000000</i>
    <i name="AMIX_MAG">      1.60000000</i>
    <i name="BMIX_MAG">      1.00000000</i>
    <separator name="electronic mixer details" >
     <i type="int" name="IMIX">     4</i>
     <i type="logical" name="MIXFIRST"> F  </i>
     <i type="int" name="MAXMIX">   -45</i>
     <i name="WC">    100.00000000</i>
     <i type="int" name="INIMIX">     1</i>
     <i type="int" name="MIXPRE">     1</i>
     <i type="int" name="MREMOVE">     5</i>
    </separator>
   </separator>
   <separator name="electronic dipolcorrection" >
    <i type="logical" name="LDIPOL"> F  </i>
    <i type="logical" name="LMONO"> F  </i>
    <i type="int" name="IDIPOL">     0</i>
    <i name="EPSILON">      1.00000000</i>
    <v name="DIPOL">   -100.00000000   -100.00000000   -100.00000000</v>
    <i name="EFIELD">      0.00000000</i>
    <i type="logical" name="LVACPOTAV"> F  </i>
   </separator>
  </separator>
  <separator name="grids" >
   <i type="int" name="NGX">    64</i>
   <i type="int" name="NGY">    64</i>
   <i type="int" name="NGZ">    64</i>
   <i type="int" name="NGXF">   128</i>
   <i type="int" name="NGYF">   128</i>
   <i type="int" name="NGZF">   128</i>
   <i type="logical" name="ADDGRID"> F  </i>
  </separator>
  <separator name="ionic" >
   <i type="int" name="NSW">   200</i>
   <i type="int" name="IBRION">     3</i>
   <i type="int" name="MDALGO">     0</i>
   <i type="int" name="ISIF">     2</i>
   <i name="PSTRESS">      0.00000000</i>
   <i name="EDIFFG">     -0.02000000</i>
   <i type="int" name="NFREE">     0</i>
   <i name="POTIM">      0.00000000</i>
   <i name="SMASS">     -3.00000000</i>
   <i name="SCALEE">      1.00000000</i>
  </separator>
  <separator name="ionic md" >
   <i name="TEBEG">      0.00010000</i>
   <i name="TEEND">      0.00010000</i>
   <i type="int" name="NBLOCK">     1</i>
   <i type="int" name="KBLOCK">   200</i>
   <i type="int" name="NPACO">   256</i>
   <i name="APACO">     10.00000000</i>
  </separator>
  <separator name="symmetry" >
   <i type="int" name="ISYM">     0</i>
   <i name="SYMPREC">      0.00001000</i>
  </separator>
  <separator name="dos" >
   <i type="int" name="LORBIT">     0</i>
   <v name="RWIGS">     -1.00000000     -1.00000000     -1.00000000</v>
   <i type="int" name="NEDOS">   301</i>
   <i name="EMIN">     10.00000000</i>
   <i name="EMAX">    -10.00000000</i>
   <i name="EFERMI">      0.00000000</i>
  </separator>
  <separator name="writing" >
   <i type="int" name="NWRITE">     2</i>
   <i type="logical" name="LWAVE"> T  </i>
   <i type="logical" name="LDOWNSAMPLE"> F  </i>
   <i type="logical" name="LCHARG"> T  </i>
   <i type="logical" name="LPARD"> F  </i>
   <i type="logical" name="LVTOT"> F  </i>
   <i type="logical" name="LVHAR"> F  </i>
   <i type="logical" name="LELF"> F  </i>
   <i type="logical" name="LOPTICS"> F  </i>
   <v name="STM">      0.00000000      0.00000000      0.00000000      0.00000000      0.00000000      0.00000000      0.00000000</v>
  </separator>
  <separator name="performance" >
   <i type="int" name="NPAR">    10</i>
   <i type="int" name="NSIM">     4</i>
   <i type="int" name="NBLK">    -1</i>
   <i type="logical" name="LPLANE"> T  </i>
   <i type="logical" name="LSCALAPACK"> T  </i>
   <i type="logical" name="LSCAAWARE"> F  </i>
   <i type="logical" name="LSCALU"> F  </i>
   <i type="logical" name="LASYNC"> F  </i>
   <i type="logical" name="LORBITALREAL"> F  </i>
  </separator>
  <separator name="miscellaneous" >
   <i type="int" name="IDIOT">     3</i>
   <i type="int" name="PHON_NSTRUCT">    -1</i>
   <i type="logical" name="LMUSIC"> F  </i>
   <v name="POMASS">    207.20000000    132.90000000    126.90400000</v>
   <v name="DARWINR">      0.00000000      0.00000000      0.00000000</v>
   <v name="DARWINV">      1.00000000      1.00000000      1.00000000</v>
   <i type="logical" name="LCORR"> T  </i>
  </separator>
  <i type="logical" name="GGA_COMPAT"> T  </i>
  <i type="logical" name="LBERRY"> F  </i>
  <i type="int" name="ICORELEVEL">     0</i>
  <i type="logical" name="LDAU"> F  </i>
  <i type="int" name="I_CONSTRAINED_M">     0</i>
  <separator name="electronic exchange-correlation" >
   <i type="string" name="GGA    ">PE</i>
   <i type="string" name="XC_C">1</i>
   <i type="int" name="VOSKOWN">     0</i>
   <i type="logical" name="LHFCALC"> F  </i>
   <i type="string" name="PRECFOCK"></i>
   <i type="logical" name="LSYMGRAD"> F  </i>
   <i type="logical" name="LHFONE"> F  </i>
   <i type="logical" name="LRHFCALC"> F  </i>
   <i type="logical" name="LTHOMAS"> F  </i>
   <i type="logical" name="LMODELHF"> F  </i>
   <i type="logical" name="LFOCKACE"> F  </i>
   <i name="ENCUT4O">     -1.00000000</i>
   <i type="int" name="EXXOEP">     0</i>
   <i type="int" name="FOURORBIT">     0</i>
   <i name="AEXX">      0.00000000</i>
   <i name="HFALPHA">      0.00000000</i>
   <i name="MCALPHA">      0.00000000</i>
   <i name="ALDAX">      1.00000000</i>
   <i name="AGGAX">      1.00000000</i>
   <i name="AMGGAX">      1.00000000</i>
   <i name="ALDAC">      1.00000000</i>
   <i name="AGGAC">      1.00000000</i>
   <i name="AMGGAC">      1.00000000</i>
   <i type="int" name="NKREDX">     1</i>
   <i type="int" name="NKREDY">     1</i>
   <i type="int" name="NKREDZ">     1</i>
   <i type="logical" name="SHIFTRED"> F  </i>
   <i type="logical" name="ODDONLY"> F  </i>
   <i type="logical" name="EVENONLY"> F  </i>
   <i type="int" name="LMAXFOCK">     0</i>
   <i type="int" name="NMAXFOCKAE">     0</i>
   <i type="logical" name="LFOCKAEDFT"> F  </i>
   <i name="HFSCREEN">      0.00000000</i>
   <i name="HFSCREENC">      0.00000000</i>
   <i type="int" name="NBANDSGWLOW">     0</i>
  </separator>
  <separator name="vdW DFT" >
   <i type="logical" name="LUSE_VDW"> F  </i>
   <i type="int" name="IVDW_NL">    -1</i>
   <i type="logical" name="LSPIN_VDW"> F  </i>
   <i name="ZAB_VDW">     -0.84910000</i>
   <i name="GAMMA_VDW">      1.39626340</i>
   <i name="ALPHA_VDW">      0.00000000</i>
   <i name="PARAM1">      0.12340000</i>
   <i name="PARAM2">      1.00000000</i>
   <i name="BPARAM">      6.30000000</i>
   <i name="CPARAM">      0.00930000</i>
  </separator>
  <separator name="model GW" >
   <i type="int" name="MODEL_GW">     0</i>
   <i name="MODEL_EPS0">     29.09526289</i>
   <i name="MODEL_ALPHA">      1.00000000</i>
  </separator>
  <separator name="linear response parameters" >
   <i type="logical" name="LEPSILON"> F  </i>
   <i type="logical" name="LRPA"> F  </i>
   <i type="logical" name="LNABLA"> F  </i>
   <i type="logical" name="LVEL"> F  </i>
   <i name="CSHIFT">      0.10000000</i>
   <i name="OMEGAMAX">     -1.00000000</i>
   <i name="DEG_THRESHOLD">      0.00200000</i>
   <i name="RTIME">     -0.10000000</i>
   <i name="WPLASMAI">      0.00000000</i>
   <v name="DFIELD">      0.00000000      0.00000000      0.00000000</v>
   <v name="WPLASMA">      0.00000000      0.00000000      0.00000000      0.00000000      0.00000000      0.00000000      0.00000000      0.00000000      0.00000000</v>
  </separator>
  <separator name="orbital magnetization" >
   <i type="logical" name="NUCIND"> F  </i>
   <v name="MAGPOS">      0.00000000      0.00000000      0.00000000</v>
   <i type="logical" name="LNICSALL"> T  </i>
   <i type="logical" name="ORBITALMAG"> F  </i>
   <i type="logical" name="LMAGBLOCH"> F  </i>
   <i type="logical" name="LCHIMAG"> F  </i>
   <i type="logical" name="LGAUGE"> T  </i>
   <i type="int" name="MAGATOM">     0</i>
   <v name="MAGDIPOL">      0.00000000      0.00000000      0.00000000</v>
   <v name="AVECCONST">      0.00000000      0.00000000      0.00000000</v>
  </separator>
  <separator name="response functions" >
   <i type="logical" name="LALL_IN_ONE"> F  </i>
   <i type="int" name="IALL_IN_ONE">    -1</i>
   <i type="int" name="NBANDS_WAVE">    -1</i>
   <i type="logical" name="LFINITE_TEMPERATURE"> F  </i>
   <i type="logical" name="LADDER"> F  </i>
   <i type="logical" name="LRPAFORCE"> F  </i>
   <i type="logical" name="LFXC"> F  </i>
   <i type="logical" name="LHARTREE"> T  </i>
   <i type="int" name="IBSE">     0</i>
   <v type="int" name="KPOINT">    -1     0     0     0</v>
   <i type="logical" name="LTCTC"> F  </i>
   <i type="logical" name="LTCTE"> F  </i>
   <i type="logical" name="LTETE"> F  </i>
   <i type="logical" name="LTRIPLET"> F  </i>
   <i type="logical" name="LFXCEPS"> F  </i>
   <i type="logical" name="LFXHEG"> F  </i>
   <i type="int" name="NATURALO">     2</i>
   <i type="logical" name="LHOLEGF"> F  </i>
   <i type="logical" name="L2ORDER"> F  </i>
   <i type="logical" name="LDMP1"> F  </i>
   <i type="logical" name="LMP2LT"> F  </i>
   <i type="logical" name="LSMP2LT"> F  </i>
   <i type="logical" name="LGWLF"> F  </i>
   <i name="ENCUTGW">     -1.60000002</i>
   <i name="ENCUTGWSOFT">     -1.60000002</i>
   <i name="ENCUTLF">     -1.00000000</i>
   <i type="logical" name="ESF_SPLINES"> F  </i>
   <i name="ESF_CONV">      0.01000000</i>
   <i type="int" name="ESF_NINTER">    15</i>
   <i type="int" name="LMAXMP2">    -1</i>
   <i name="SCISSOR">      0.00000000</i>
   <i type="int" name="NOMEGA">     0</i>
   <i type="int" name="NOMEGAR">     0</i>
   <i type="int" name="NBANDSGW">    -1</i>
   <i type="int" name="NBANDSO">    -1</i>
   <i type="int" name="NBANDSV">    -1</i>
   <i type="int" name="NELMGW">     1</i>
   <i type="int" name="NELMHF">     1</i>
   <i type="int" name="DIM">     3</i>
   <i type="int" name="IESPILON">     4</i>
   <i type="int" name="ANTIRES">     0</i>
   <i name="OMEGAMAX">    -30.00000000</i>
   <i name="OMEGAMIN">    -30.00000000</i>
   <i name="OMEGATL">   -200.00000000</i>
   <i type="int" name="OMEGAGRID">     0</i>
   <i name="CSHIFT">     -0.10000000</i>
   <i type="logical" name="LSELFENERGY"> F  </i>
   <i type="logical" name="LSPECTRAL"> F  </i>
   <i type="logical" name="LSPECTRALGW"> F  </i>
   <i type="logical" name="LSINGLES"> F  </i>
   <i type="logical" name="LFERMIGW"> F  </i>
   <i type="logical" name="ODDONLYGW"> F  </i>
   <i type="logical" name="EVENONLYGW"> F  </i>
   <i type="int" name="NKREDLFX">     1</i>
   <i type="int" name="NKREDLFY">     1</i>
   <i type="int" name="NKREDLFZ">     1</i>
   <i type="int" name="MAXMEM">  2800</i>
   <i type="int" name="TELESCOPE">     0</i>
   <i type="int" name="NTAUPAR">    -1</i>
   <i type="int" name="NOMEGAPAR">    -1</i>
   <i name="DAMP_NEWTON">      0.80000001</i>
   <i name="LAMBDA">      1.00000000</i>
  </separator>
  <separator name="External order field" >
   <i name="OFIELD_KAPPA">      0.00000000</i>
   <v name="OFIELD_K">      0.00000000      0.00000000      0.00000000</v>
   <i name="OFIELD_Q6_NEAR">      0.00000000</i>
   <i name="OFIELD_Q6_FAR">      0.00000000</i>
   <i name="OFIELD_A">      0.00000000</i>
  </separator>
  <separator name="optional k-points parameters" >
   <i type="int" name="KPOINTS_OPT_MODE">     1</i>
   <i type="logical" name="LKPOINTS_OPT"> F  </i>
  </separator>
 </parameters>
 <atominfo>
  <atoms>      41 </atoms>
  <types>       3 </types>
  <array name="atoms" >
   <dimension dim="1">ion</dimension>
   <field type="string">element</field>
   <field type="int">atomtype</field>
   <set>
    <rc><c>Pb</c><c>   1</c></rc>
    <rc><c>Pb</c><c>   1</c></rc>
    <rc><c>Pb</c><c>   1</c></rc>
    <rc><c>Pb</c><c>   1</c></rc>
    <rc><c>Pb</c><c>   1</c></rc>
    <rc><c>Pb</c><c>   1</c></rc>
    <rc><c>Pb</c><c>   1</c></rc>
    <rc><c>Pb</c><c>   1</c></rc>
    <rc><c>Cs</c><c>   2</c></rc>
    <rc><c>Cs</c><c>   2</c></rc>
    <rc><c>Cs</c><c>   2</c></rc>
    <rc><c>Cs</c><c>   2</c></rc>
    <rc><c>Cs</c><c>   2</c></rc>
    <rc><c>Cs</c><c>   2</c></rc>
    <rc><c>Cs</c><c>   2</c></rc>
    <rc><c>Cs</c><c>   2</c></rc>
    <rc><c>I </c><c>   3</c></rc>
    <rc><c>I </c><c>   3</c></rc>
    <rc><c>I </c><c>   3</c></rc>
    <rc><c>I </c><c>   3</c></rc>
    <rc><c>I </c><c>   3</c></rc>
    <rc><c>I </c><c>   3</c></rc>
    <rc><c>I </c><c>   3</c></rc>
    <rc><c>I </c><c>   3</c></rc>
    <rc><c>I </c><c>   3</c></rc>
    <rc><c>I </c><c>   3</c></rc>
    <rc><c>I </c><c>   3</c></rc>
    <rc><c>I </c><c>   3</c></rc>
    <rc><c>I </c><c>   3</c></rc>
    <rc><c>I </c><c>   3</c></rc>
    <rc><c>I </c><c>   3</c></rc>
    <rc><c>I </c><c>   3</c></rc>
    <rc><c>I </c><c>   3</c></rc>
    <rc><c>I </c><c>   3</c></rc>
    <rc><c>I </c><c>   3</c></rc>
    <rc><c>I </c><c>   3</c></rc>
    <rc><c>I </c><c>   3</c></rc>
    <rc><c>I </c><c>   3</c></rc>
    <rc><c>I </c><c>   3</c></rc>
    <rc><c>I </c><c>   3</c></rc>
    <rc><c>I </c><c>   3</c></rc>
   </set>
  </array>
  <array name="atomtypes" >
   <dimension dim="1">type</dimension>
   <field type="int">atomspertype</field>
   <field type="string">element</field>
   <field>mass</field>
   <field>valence</field>
   <field type="string">pseudopotential</field>
   <set>
    <rc><c>   8</c><c>Pb</c><c>    207.20000000</c><c>      4.00000000</c><c>  PAW_PBE Pb 08Apr2002                  </c></rc>
    <rc><c>   8</c><c>Cs</c><c>    132.90000000</c><c>      9.00000000</c><c>  PAW_PBE Cs_sv 25Jan2019               </c></rc>
    <rc><c>  25</c><c>I </c><c>    126.90400000</c><c>      7.00000000</c><c>  PAW_PBE I 08Apr2002                   </c></rc>
   </set>
  </array>
 </atominfo>
 <structure name="initialpos" >
  <crystal>
   <varray name="basis" >
    <v>      12.57433319       0.00000000       0.00000000 </v>
    <v>       0.00000000      12.57433319       0.00000000 </v>
    <v>       0.00000000       0.00000000      12.57433319 </v>
   </varray>
   <i name="volume">   1988.17629733 </i>
   <varray name="rec_basis" >
    <v>       0.07952708       0.00000000       0.00000000 </v>
    <v>       0.00000000       0.07952708       0.00000000 </v>
    <v>       0.00000000       0.00000000       0.07952708 </v>
   </varray>
  </crystal>
  <varray name="positions" >
   <v>       0.00629561       0.00717134       0.00412859 </v>
   <v>       0.00605352       0.01697797       0.49320248 </v>
   <v>       0.01308640       0.49853486       0.99851766 </v>
   <v>       0.01768257       0.51890011       0.49760883 </v>
   <v>       0.50335755       0.98959287       0.99606013 </v>
   <v>       0.50066848       0.01470342       0.49110400 </v>
   <v>       0.52566871       0.49851965       0.01358091 </v>
   <v>       0.51282554       0.53095078       0.51080320 </v>
   <v>       0.26542385       0.26003324       0.21865923 </v>
   <v>       0.26022116       0.23757026       0.71963063 </v>
   <v>       0.25760145       0.71304246       0.23506507 </v>
   <v>       0.24426958       0.76020035       0.77170078 </v>
   <v>       0.75832992       0.27569793       0.31573683 </v>
   <v>       0.78442073       0.25327834       0.76345671 </v>
   <v>       0.76094785       0.78757053       0.27071824 </v>
   <v>       0.81029470       0.78293162       0.76456093 </v>
   <v>       0.95340839       0.04893840       0.24762771 </v>
   <v>       0.03623985       0.99409980       0.74830231 </v>
   <v>       0.02642082       0.47811925       0.24702374 </v>
   <v>       0.02101858       0.55398358       0.74725754 </v>
   <v>       0.54089373       0.05763738       0.24317787 </v>
   <v>       0.46737905       0.96183005       0.74201139 </v>
   <v>       0.50587824       0.44871241       0.26132504 </v>
   <v>       0.51554210       0.40669621       0.77903880 </v>
   <v>       0.25381272       0.96585168       0.04956060 </v>
   <v>       0.25265348       0.06769711       0.45814074 </v>
   <v>       0.27121850       0.53216924       0.98771385 </v>
   <v>       0.26631725       0.47259994       0.49895463 </v>
   <v>       0.75496185       0.02367679       0.96129065 </v>
   <v>       0.75436803       0.98179493       0.52944386 </v>
   <v>       0.77052047       0.42451232       0.02407350 </v>
   <v>       0.76610818       0.54414976       0.49394475 </v>
   <v>       0.06921141       0.25307249       0.96830311 </v>
   <v>       0.98148684       0.26777611       0.53854666 </v>
   <v>       0.98016904       0.75342387       0.03199760 </v>
   <v>       0.04711066       0.76830825       0.46174719 </v>
   <v>       0.45853854       0.22719595       0.97144317 </v>
   <v>       0.53939151       0.25332642       0.52907055 </v>
   <v>       0.55493287       0.74163986       0.04769590 </v>
   <v>       0.47621014       0.76370983       0.43026214 </v>
   <v>       0.53928326       0.65850895       0.72451250 </v>
  </varray>
 </structure>
 <calculation>
  <scstep>
   <time name="dav">   17.94   17.94</time>
   <time name="total">   18.02   18.02</time>
   <energy>
    <i name="alphaZ">    325.71046388 </i>
    <i name="ewald"> -10912.47142847 </i>
    <i name="hartreedc">  -1825.39791588 </i>
    <i name="XCdc">  -1769.26509555 </i>
    <i name="pawpsdc">  12287.06968193 </i>
    <i name="pawaedc"> -10010.08791678 </i>
    <i name="eentropy">     -0.33832985 </i>
    <i name="bandstr">    509.55797985 </i>
    <i name="atom">  13117.98845597 </i>
    <i name="e_fr_energy">   1722.76589512 </i>
    <i name="e_wo_entrp">   1723.10422497 </i>
    <i name="e_0_energy">   1722.93506004 </i>
   </energy>
  </scstep>
  <scstep>
   <time name="dav">   22.30   22.30</time>
   <time name="total">   22.30   22.31</time>
   <energy>
    <i name="e_fr_energy">     90.79147514 </i>
    <i name="e_wo_entrp">     90.87150623 </i>
    <i name="e_0_energy">     90.83149069 </i>
   </energy>
  </scstep>
  <scstep>
   <time name="dav">   20.28   20.28</time>
   <time name="total">   20.28   20.28</time>
   <energy>
    <i name="e_fr_energy">   -110.88186664 </i>
    <i name="e_wo_entrp">   -110.76886389 </i>
    <i name="e_0_energy">   -110.82536527 </i>
   </energy>
  </scstep>
  <scstep>
   <time name="dav">   21.34   21.34</time>
   <time name="total">   21.34   21.35</time>
   <energy>
    <i name="e_fr_energy">   -116.76632151 </i>
    <i name="e_wo_entrp">   -116.65315760 </i>
    <i name="e_0_energy">   -116.70973956 </i>
   </energy>
  </scstep>
  <scstep>
   <time name="dav">   21.34   21.34</time>
   <time name="total">   21.91   21.91</time>
   <energy>
    <i name="e_fr_energy">   -116.89425664 </i>
    <i name="e_wo_entrp">   -116.78110831 </i>
    <i name="e_0_energy">   -116.83768248 </i>
   </energy>
  </scstep>
  <scstep>
   <time name="dav">   21.06   21.06</time>
   <time name="total">   21.72   21.73</time>
   <energy>
    <i name="e_fr_energy">   -113.93891496 </i>
    <i name="e_wo_entrp">   -113.82616055 </i>
    <i name="e_0_energy">   -113.88253775 </i>
   </energy>
  </scstep>
  <scstep>
   <time name="dav">   21.76   21.76</time>
   <time name="total">   22.43   22.43</time>
   <energy>
    <i name="e_fr_energy">   -113.69219194 </i>
    <i name="e_wo_entrp">   -113.57981277 </i>
    <i name="e_0_energy">   -113.63600236 </i>
   </energy>
  </scstep>
  <scstep>
   <time name="dav">   21.09   21.09</time>
   <time name="total">   21.76   21.76</time>
   <energy>
    <i name="e_fr_energy">   -113.72531369 </i>
    <i name="e_wo_entrp">   -113.61291866 </i>
    <i name="e_0_energy">   -113.66911617 </i>
   </energy>
  </scstep>
  <scstep>
   <time name="dav">   21.89   21.90</time>
   <time name="total">   22.56   22.56</time>
   <energy>
    <i name="e_fr_energy">   -113.71621792 </i>
    <i name="e_wo_entrp">   -113.60381136 </i>
    <i name="e_0_energy">   -113.66001464 </i>
   </energy>
  </scstep>
  <scstep>
   <time name="dav">   20.59   20.59</time>
   <time name="total">   21.26   21.26</time>
   <energy>
    <i name="e_fr_energy">   -113.68299833 </i>
    <i name="e_wo_entrp">   -113.57052472 </i>
    <i name="e_0_energy">   -113.62676152 </i>
   </energy>
  </scstep>
  <scstep>
   <time name="dav">   20.87   20.87</time>
   <time name="total">   21.54   21.54</time>
   <energy>
    <i name="e_fr_energy">   -113.68276384 </i>
    <i name="e_wo_entrp">   -113.57029326 </i>
    <i name="e_0_energy">   -113.62652855 </i>
   </energy>
  </scstep>
  <scstep>
   <time name="dav">   22.02   22.03</time>
   <time name="total">   22.70   22.70</time>
   <energy>
    <i name="e_fr_energy">   -113.68235365 </i>
    <i name="e_wo_entrp">   -113.56988405 </i>
    <i name="e_0_energy">   -113.62611885 </i>
   </energy>
  </scstep>
  <scstep>
   <time name="dav">   20.80   20.80</time>
   <time name="total">   21.48   21.48</time>
   <energy>
    <i name="e_fr_energy">   -113.68179915 </i>
    <i name="e_wo_entrp">   -113.56933082 </i>
    <i name="e_0_energy">   -113.62556498 </i>
   </energy>
  </scstep>
  <scstep>
   <time name="dav">   20.25   20.25</time>
   <time name="total">   20.93   20.93</time>
   <energy>
    <i name="e_fr_energy">   -113.68213375 </i>
    <i name="e_wo_entrp">   -113.56966814 </i>
    <i name="e_0_energy">   -113.62590095 </i>
   </energy>
  </scstep>
  <scstep>
   <time name="dav">   20.85   20.86</time>
   <time name="total">   21.53   21.53</time>
   <energy>
    <i name="e_fr_energy">   -113.68214718 </i>
    <i name="e_wo_entrp">   -113.56968041 </i>
    <i name="e_0_energy">   -113.62591379 </i>
   </energy>
  </scstep>
  <scstep>
   <time name="dav">   22.45   22.46</time>
   <time name="total">   23.13   23.13</time>
   <energy>
    <i name="e_fr_energy">   -113.68214161 </i>
    <i name="e_wo_entrp">   -113.56967479 </i>
    <i name="e_0_energy">   -113.62590820 </i>
   </energy>
  </scstep>
  <scstep>
   <time name="dav">   19.46   19.47</time>
   <time name="total">   20.13   20.14</time>
   <energy>
    <i name="e_fr_energy">   -113.68214887 </i>
    <i name="e_wo_entrp">   -113.56968214 </i>
    <i name="e_0_energy">   -113.62591551 </i>
   </energy>
  </scstep>
  <scstep>
   <time name="dav">   20.24   20.24</time>
   <time name="total">   20.91   20.92</time>
   <energy>
    <i name="e_fr_energy">   -113.68214796 </i>
    <i name="e_wo_entrp">   -113.56968118 </i>
    <i name="e_0_energy">   -113.62591457 </i>
   </energy>
  </scstep>
  <scstep>
   <time name="dav">   20.71   20.71</time>
   <time name="total">   21.36   21.36</time>
   <energy>
    <i name="e_fr_energy">   -113.68214944 </i>
    <i name="e_wo_entrp">   -113.56968275 </i>
    <i name="e_0_energy">   -113.62591609 </i>
   </energy>
  </scstep>
  <scstep>
   <time name="dav">   13.63   13.63</time>
   <time name="total">   13.74   13.74</time>
   <energy>
    <i name="alphaZ">    325.71046388 </i>
    <i name="ewald"> -10912.47142847 </i>
    <i name="hartreedc">  -1886.16564263 </i>
    <i name="XCdc">  -1760.87504953 </i>
    <i name="pawpsdc">  15229.78163066 </i>
    <i name="pawaedc"> -12955.09227434 </i>
    <i name="eentropy">     -0.11246667 </i>
    <i name="bandstr">  -1272.44583761 </i>
    <i name="atom">  13117.98845597 </i>
    <i name="e_fr_energy">   -113.68214873 </i>
    <i name="e_wo_entrp">   -113.56968206 </i>
    <i name="e_0_energy">   -113.62591540 </i>
   </energy>
  </scstep>
  <structure>
   <crystal>
    <varray name="basis" >
     <v>      12.57433319       0.00000000       0.00000000 </v>
     <v>       0.00000000      12.57433319       0.00000000 </v>
     <v>       0.00000000       0.00000000      12.57433319 </v>
    </varray>
    <i name="volume">   1988.17629733 </i>
    <varray name="rec_basis" >
     <v>       0.07952708       0.00000000       0.00000000 </v>
     <v>       0.00000000       0.07952708       0.00000000 </v>
     <v>       0.00000000       0.00000000       0.07952708 </v>
    </varray>
   </crystal>
   <varray name="positions" >
    <v>       0.00629561       0.00717134       0.00412859 </v>
    <v>       0.00605352       0.01697797       0.49320248 </v>
    <v>       0.01308640       0.49853486       0.99851766 </v>
    <v>       0.01768257       0.51890011       0.49760883 </v>
    <v>       0.50335755       0.98959287       0.99606013 </v>
    <v>       0.50066848       0.01470342       0.49110400 </v>
    <v>       0.52566871       0.49851965       0.01358091 </v>
    <v>       0.51282554       0.53095078       0.51080320 </v>
    <v>       0.26542385       0.26003324       0.21865923 </v>
    <v>       0.26022116       0.23757026       0.71963063 </v>
    <v>       0.25760145       0.71304246       0.23506507 </v>
    <v>       0.24426958       0.76020035       0.77170078 </v>
    <v>       0.75832992       0.27569793       0.31573683 </v>
    <v>       0.78442073       0.25327834       0.76345671 </v>
    <v>       0.76094785       0.78757053       0.27071824 </v>
    <v>       0.81029470       0.78293162       0.76456093 </v>
    <v>       0.95340839       0.04893840       0.24762771 </v>
    <v>       0.03623985       0.99409980       0.74830231 </v>
    <v>       0.02642082       0.47811925       0.24702374 </v>
    <v>       0.02101858       0.55398358       0.74725754 </v>
    <v>       0.54089373       0.05763738       0.24317787 </v>
    <v>       0.46737905       0.96183005       0.74201139 </v>
    <v>       0.50587824       0.44871241       0.26132504 </v>
    <v>       0.51554210       0.40669621       0.77903880 </v>
    <v>       0.25381272       0.96585168       0.04956060 </v>
    <v>       0.25265348       0.06769711       0.45814074 </v>
    <v>       0.27121850       0.53216924       0.98771385 </v>
    <v>       0.26631725       0.47259994       0.49895463 </v>
    <v>       0.75496185       0.02367679       0.96129065 </v>
    <v>       0.75436803       0.98179493       0.52944386 </v>
    <v>       0.77052047       0.42451232       0.02407350 </v>
    <v>       0.76610818       0.54414976       0.49394475 </v>
    <v>       0.06921141       0.25307249       0.96830311 </v>
    <v>       0.98148684       0.26777611       0.53854666 </v>
    <v>       0.98016904       0.75342387       0.03199760 </v>
    <v>       0.04711066       0.76830825       0.46174719 </v>
    <v>       0.45853854       0.22719595       0.97144317 </v>
    <v>       0.53939151       0.25332642       0.52907055 </v>
    <v>       0.55493287       0.74163986       0.04769590 </v>
    <v>       0.47621014       0.76370983       0.43026214 </v>
    <v>       0.53928326       0.65850895       0.72451250 </v>
   </varray>
  </structure>
  <varray name="forces" >
   <v>       0.02821697       0.01338422       0.01520611 </v>
   <v>       0.02728755       0.00196132      -0.00363986 </v>
   <v>       0.00657009       0.00286792       0.00671815 </v>
   <v>       0.03998287      -0.03086470       0.02196514 </v>
   <v>       0.03284265      -0.05146372       0.07587678 </v>
   <v>       0.03758658      -0.05343072      -0.05433957 </v>
   <v>      -0.03471599      -0.09732651       0.16976810 </v>
   <v>      -0.00163286      -0.09327867      -0.08323747 </v>
   <v>      -0.01254154      -0.03747514       0.02826687 </v>
   <v>      -0.01100783       0.00929590      -0.00887506 </v>
   <v>      -0.04507564      -0.01039383      -0.03331938 </v>
   <v>       0.01721129      -0.01916412      -0.01407042 </v>
   <v>      -0.00478435       0.03903285      -0.11524824 </v>
   <v>      -0.06591266      -0.02117273      -0.01418030 </v>
   <v>       0.02143474       0.00780670       0.05369492 </v>
   <v>      -0.06956828      -0.02280142      -0.03216687 </v>
   <v>       0.03181805       0.01242172      -0.00372977 </v>
   <v>       0.07683989      -0.03620065       0.00332626 </v>
   <v>       0.04024403      -0.06201536       0.03392763 </v>
   <v>      -0.10357898      -0.06801446       0.04447330 </v>
   <v>       0.03335347      -0.06278865      -0.01735675 </v>
   <v>      -0.00339293       0.12072950       0.07765027 </v>
   <v>      -0.00740710       0.09910962      -0.07669945 </v>
   <v>       0.03761216       0.09231523      -0.09376465 </v>
   <v>       0.02306786      -0.08622110      -0.00597323 </v>
   <v>       0.00549990      -0.07565335      -0.00178425 </v>
   <v>      -0.02680473      -0.01424322       0.01362352 </v>
   <v>      -0.03425513       0.04226700       0.05855028 </v>
   <v>       0.02106493      -0.00213855      -0.01014225 </v>
   <v>       0.05539220      -0.02724756       0.00877290 </v>
   <v>      -0.01459932       0.05201660      -0.04445748 </v>
   <v>      -0.02733223       0.04110567      -0.04298894 </v>
   <v>      -0.04713501       0.01551806      -0.04233601 </v>
   <v>       0.02706425       0.00474433      -0.03048621 </v>
   <v>      -0.04265226      -0.00810996       0.02250947 </v>
   <v>       0.01364595       0.02413132       0.01231053 </v>
   <v>      -0.04627845       0.15103777       0.10058286 </v>
   <v>       0.04269659       0.02148713      -0.02887036 </v>
   <v>       0.02848111      -0.04976363       0.05465970 </v>
   <v>       0.05485886      -0.09629227      -0.12010738 </v>
   <v>      -0.10409670       0.27482746       0.07589112 </v>
  </varray>
  <varray name="stress" >
   <v>      -3.23365537       0.45289890      -0.18634789 </v>
   <v>       0.45289880      -1.12529055       0.08203860 </v>
   <v>      -0.18634672       0.08203735      -1.25413754 </v>
  </varray>
  <energy>
   <i name="e_fr_energy">   -124.01416525 </i>
   <i name="e_wo_entrp">   -123.90169858 </i>
   <i name="e_0_energy">   -123.95793191 </i>
  </energy>
  <time name="totalsc">  457.36  457.68</time>
 </calculation>
 <calculation>
  <scstep>
   <time name="dav">   20.39   20.39</time>
   <time name="total">   21.07   21.07</time>
   <energy>
    <i name="alphaZ">    325.71046388 </i>
    <i name="ewald"> -10914.33738880 </i>
    <i name="hartreedc">  -1884.43624965 </i>
    <i name="XCdc">  -1760.89651353 </i>
    <i name="pawpsdc">  15232.08224982 </i>
    <i name="pawaedc"> -12957.39085132 </i>
    <i name="eentropy">     -0.11247658 </i>
    <i name="bandstr">  -1272.31293247 </i>
    <i name="atom">  13117.98845597 </i>
    <i name="e_fr_energy">   -113.70524267 </i>
    <i name="e_wo_entrp">   -113.59276609 </i>
    <i name="e_0_energy">   -113.64900438 </i>
   </energy>
  </scstep>
  <scstep>
   <time name="dav">   20.68   20.68</time>
   <time name="total">   21.37   21.37</time>
   <energy>
    <i name="e_fr_energy">   -113.71646369 </i>
    <i name="e_wo_entrp">   -113.60399023 </i>
    <i name="e_0_energy">   -113.66022696 </i>
   </energy>
  </scstep>
  <scstep>
   <time name="dav">   21.84   21.85</time>
   <time name="total">   22.54   22.54</time>
   <energy>
    <i name="e_fr_energy">   -113.71623549 </i>
    <i name="e_wo_entrp">   -113.60376102 </i>
    <i name="e_0_energy">   -113.65999825 </i>
   </energy>
  </scstep>
  <scstep>
   <time name="dav">   21.45   21.45</time>
   <time name="total">   22.14   22.15</time>
   <energy>
    <i name="e_fr_energy">   -113.71609190 </i>
    <i name="e_wo_entrp">   -113.60361660 </i>
    <i name="e_0_energy">   -113.65985425 </i>
   </energy>
  </scstep>
  <scstep>
   <time name="dav">   20.94   20.95</time>
   <time name="total">   21.64   21.64</time>
   <energy>
    <i name="e_fr_energy">   -113.71603081 </i>
    <i name="e_wo_entrp">   -113.60355447 </i>
    <i name="e_0_energy">   -113.65979264 </i>
   </energy>
  </scstep>
  <scstep>
   <time name="dav">   21.50   21.50</time>
   <time name="total">   22.18   22.18</time>
   <energy>
    <i name="e_fr_energy">   -113.71603758 </i>
    <i name="e_wo_entrp">   -113.60356108 </i>
    <i name="e_0_energy">   -113.65979933 </i>
   </energy>
  </scstep>
  <scstep>
   <time name="dav">   20.44   20.44</time>
   <time name="total">   20.55   20.55</time>
   <energy>
    <i name="alphaZ">    325.71046388 </i>
    <i name="ewald"> -10914.33738880 </i>
    <i name="hartreedc">  -1884.40538034 </i>
    <i name="XCdc">  -1760.89653047 </i>
    <i name="pawpsdc">  15224.64936442 </i>
    <i name="pawaedc"> -12949.95054663 </i>
    <i name="eentropy">     -0.11247645 </i>
    <i name="bandstr">  -1272.36199871 </i>
    <i name="atom">  13117.98845597 </i>
    <i name="e_fr_energy">   -113.71603711 </i>
    <i name="e_wo_entrp">   -113.60356066 </i>
    <i name="e_0_energy">   -113.65979889 </i>
   </energy>
  </scstep>
  <structure>
   <crystal>
    <varray name="basis" >
     <v>      12.57433319       0.00000000       0.00000000 </v>
     <v>       0.00000000      12.57433319       0.00000000 </v>
     <v>       0.00000000       0.00000000      12.57433319 </v>
    </varray>
    <i name="volume">   1988.17629733 </i>
    <varray name="rec_basis" >
     <v>       0.07952708       0.00000000       0.00000000 </v>
     <v>       0.00000000       0.07952708       0.00000000 </v>
     <v>       0.00000000       0.00000000       0.07952708 </v>
    </varray>
   </crystal>
   <varray name="positions" >
    <v>       0.00649475       0.00725604       0.00423416 </v>
    <v>       0.00625618       0.01699517       0.49316744 </v>
    <v>       0.01313182       0.49854815       0.99857147 </v>
    <v>       0.01796457       0.51868855       0.49776374 </v>
    <v>       0.50358824       0.98920907       0.99660934 </v>
    <v>       0.50094329       0.01431625       0.49071615 </v>
    <v>       0.52541784       0.49780494       0.01480254 </v>
    <v>       0.51280757       0.53030781       0.51023063 </v>
    <v>       0.26533054       0.25972469       0.21884488 </v>
    <v>       0.26015699       0.23765627       0.71958131 </v>
    <v>       0.25730618       0.71293948       0.23478680 </v>
    <v>       0.24433657       0.76003978       0.77154926 </v>
    <v>       0.75828487       0.27598856       0.31491972 </v>
    <v>       0.78399661       0.25311405       0.76337859 </v>
    <v>       0.76110051       0.78764742       0.27109710 </v>
    <v>       0.80975796       0.78277120       0.76432683 </v>
    <v>       0.95364274       0.04904606       0.24759458 </v>
    <v>       0.03677086       0.99384361       0.74832018 </v>
    <v>       0.02675892       0.47765527       0.24727005 </v>
    <v>       0.02019804       0.55347555       0.74757767 </v>
    <v>       0.54112918       0.05719157       0.24306145 </v>
    <v>       0.46735650       0.96272286       0.74257971 </v>
    <v>       0.50577554       0.44942789       0.26079309 </v>
    <v>       0.51591046       0.40738911       0.77837212 </v>
    <v>       0.25397402       0.96521924       0.04950524 </v>
    <v>       0.25270002       0.06717205       0.45815203 </v>
    <v>       0.27102307       0.53204929       0.98775075 </v>
    <v>       0.26606721       0.47294142       0.49945173 </v>
    <v>       0.75510898       0.02364722       0.96123089 </v>
    <v>       0.75477098       0.98160392       0.52949656 </v>
    <v>       0.77041443       0.42488413       0.02380382 </v>
    <v>       0.76591073       0.54448549       0.49359388 </v>
    <v>       0.06886181       0.25317338       0.96798973 </v>
    <v>       0.98169288       0.26781704       0.53832303 </v>
    <v>       0.97985858       0.75335507       0.03215414 </v>
    <v>       0.04723563       0.76848789       0.46180583 </v>
    <v>       0.45821644       0.22826751       0.97217494 </v>
    <v>       0.53970685       0.25347656       0.52888254 </v>
    <v>       0.55512804       0.74127103       0.04809826 </v>
    <v>       0.47659351       0.76302423       0.42939227 </v>
    <v>       0.53849170       0.66053312       0.72504552 </v>
   </varray>
  </structure>
  <varray name="forces" >
   <v>       0.02239393       0.00402342       0.00682339 </v>
   <v>       0.02822824       0.00018154       0.00390030 </v>
   <v>       0.00360259       0.00945369       0.01168033 </v>
   <v>       0.01710418      -0.02049056       0.01320605 </v>
   <v>       0.02493483      -0.01042173       0.05738628 </v>
   <v>       0.03118034      -0.04131548      -0.03327139 </v>
   <v>      -0.03714192      -0.09394849       0.07741745 </v>
   <v>       0.00703190      -0.06467485      -0.01647268 </v>
   <v>      -0.01706397      -0.03295620       0.02329046 </v>
   <v>      -0.00665224       0.01125944      -0.00275998 </v>
   <v>      -0.04314376      -0.00626763      -0.03357714 </v>
   <v>       0.01234484      -0.01966031      -0.01136787 </v>
   <v>       0.00140361       0.03152385      -0.11431388 </v>
   <v>      -0.06526807      -0.01894440      -0.01142925 </v>
   <v>       0.02209775       0.00425850       0.04985576 </v>
   <v>      -0.05704119      -0.02025400      -0.02768744 </v>
   <v>       0.03735970       0.01476481      -0.00574414 </v>
   <v>       0.07414859      -0.03318021       0.00528416 </v>
   <v>       0.04265467      -0.06209366       0.02872115 </v>
   <v>      -0.09777013      -0.06647177       0.03893642 </v>
   <v>       0.03554995      -0.05042537      -0.00374672 </v>
   <v>       0.00215614       0.11760150       0.06040254 </v>
   <v>      -0.01495264       0.08457344      -0.01769253 </v>
   <v>       0.04206502       0.14471102      -0.08713307 </v>
   <v>       0.01498486      -0.08208557      -0.00128789 </v>
   <v>       0.02223700      -0.06902049       0.00479490 </v>
   <v>      -0.02092171      -0.01027608       0.01043261 </v>
   <v>      -0.02122706       0.03553083       0.06272519 </v>
   <v>       0.01607524      -0.00450976      -0.01027232 </v>
   <v>       0.03332420      -0.01902876       0.00757661 </v>
   <v>      -0.01057167       0.04508902      -0.03822666 </v>
   <v>      -0.02084634       0.03079187      -0.03135194 </v>
   <v>      -0.04364119       0.00918379      -0.03835023 </v>
   <v>       0.02538061       0.00464043      -0.02594306 </v>
   <v>      -0.03831764      -0.00567673       0.02725607 </v>
   <v>       0.01028080       0.00967890       0.01199563 </v>
   <v>      -0.03555993       0.10130360       0.09454808 </v>
   <v>       0.03780072      -0.00851901      -0.04266823 </v>
   <v>       0.02629442      -0.04279647       0.04909426 </v>
   <v>       0.04893021      -0.07521585      -0.12024632 </v>
   <v>      -0.10944488       0.19966375       0.02821510 </v>
  </varray>
  <varray name="stress" >
   <v>      -3.26290680       0.39936474      -0.21378919 </v>
   <v>       0.39936652      -1.53692480      -0.00418861 </v>
   <v>      -0.21378794      -0.00418828      -1.36509307 </v>
  </varray>
  <energy>
   <i name="e_fr_energy">   -124.04822955 </i>
   <i name="e_wo_entrp">   -123.93575311 </i>
   <i name="e_0_energy">   -123.99199133 </i>
  </energy>
  <time name="totalsc">  180.34  180.51</time>
 </calculation>
 <calculation>
  <scstep>
   <time name="dav">   20.05   20.05</time>
   <time name="total">   20.70   20.70</time>
   <energy>
    <i name="alphaZ">    325.71046388 </i>
    <i name="ewald"> -10916.95844476 </i>
    <i name="hartreedc">  -1881.94816850 </i>
    <i name="XCdc">  -1760.92501777 </i>
    <i name="pawpsdc">  15224.50963929 </i>
    <i name="pawaedc"> -12949.81060641 </i>
    <i name="eentropy">     -0.11249625 </i>
    <i name="bandstr">  -1272.17740148 </i>
    <i name="atom">  13117.98845597 </i>
    <i name="e_fr_energy">   -113.72357604 </i>
    <i name="e_wo_entrp">   -113.61107979 </i>
    <i name="e_0_energy">   -113.66732792 </i>
   </energy>
  </scstep>
  <scstep>
   <time name="dav">   20.57   20.58</time>
   <time name="total">   21.25   21.25</time>
   <energy>
    <i name="e_fr_energy">   -113.75799423 </i>
    <i name="e_wo_entrp">   -113.64550273 </i>
    <i name="e_0_energy">   -113.70174848 </i>
   </energy>
  </scstep>
  <scstep>
   <time name="dav">   22.02   22.02</time>
   <time name="total">   22.69   22.69</time>
   <energy>
    <i name="e_fr_energy">   -113.75734348 </i>
    <i name="e_wo_entrp">   -113.64485001 </i>
    <i name="e_0_energy">   -113.70109674 </i>
   </energy>
  </scstep>
  <scstep>
   <time name="dav">   21.52   21.52</time>
   <time name="total">   22.20   22.20</time>
   <energy>
    <i name="e_fr_energy">   -113.75691756 </i>
    <i name="e_wo_entrp">   -113.64442233 </i>
    <i name="e_0_energy">   -113.70066995 </i>
   </energy>
  </scstep>
  <scstep>
   <time name="dav">   21.16   21.16</time>
   <time name="total">   21.83   21.83</time>
   <energy>
    <i name="e_fr_energy">   -113.75676331 </i>
    <i name="e_wo_entrp">   -113.64426598 </i>
    <i name="e_0_energy">   -113.70051464 </i>
   </energy>
  </scstep>
  <scstep>
   <time name="dav">   21.50   21.51</time>
   <time name="total">   22.18   22.18</time>
   <energy>
    <i name="e_fr_energy">   -113.75678178 </i>
    <i name="e_wo_entrp">   -113.64428413 </i>
    <i name="e_0_energy">   -113.70053296 </i>
   </energy>
  </scstep>
  <scstep>
   <time name="dav">   21.45   21.45</time>
   <time name="total">   22.10   22.10</time>
   <energy>
    <i name="e_fr_energy">   -113.75678051 </i>
    <i name="e_wo_entrp">   -113.64428291 </i>
    <i name="e_0_energy">   -113.70053171 </i>
   </energy>
  </scstep>
  <scstep>
   <time name="dav">   20.57   20.57</time>
   <time name="total">   21.22   21.22</time>
   <energy>
    <i name="e_fr_energy">   -113.75677935 </i>
    <i name="e_wo_entrp">   -113.64428169 </i>
    <i name="e_0_energy">   -113.70053052 </i>
   </energy>
  </scstep>
  <scstep>
   <time name="dav">   15.93   15.93</time>
   <time name="total">   16.04   16.04</time>
   <energy>
    <i name="alphaZ">    325.71046388 </i>
    <i name="ewald"> -10916.95844476 </i>
    <i name="hartreedc">  -1881.87075428 </i>
    <i name="XCdc">  -1760.92497080 </i>
    <i name="pawpsdc">  15214.84708631 </i>
    <i name="pawaedc"> -12940.13813735 </i>
    <i name="eentropy">     -0.11249769 </i>
    <i name="bandstr">  -1272.29798053 </i>
    <i name="atom">  13117.98845597 </i>
    <i name="e_fr_energy">   -113.75677925 </i>
    <i name="e_wo_entrp">   -113.64428156 </i>
    <i name="e_0_energy">   -113.70053041 </i>
   </energy>
  </scstep>
  <structure>
   <crystal>
    <varray name="basis" >
     <v>      12.57433319       0.00000000       0.00000000 </v>
     <v>       0.00000000      12.57433319       0.00000000 </v>
     <v>       0.00000000       0.00000000      12.57433319 </v>
    </varray>
    <i name="volume">   1988.17629733 </i>
    <varray name="rec_basis" >
     <v>       0.07952708       0.00000000       0.00000000 </v>
     <v>       0.00000000       0.07952708       0.00000000 </v>
     <v>       0.00000000       0.00000000       0.07952708 </v>
    </varray>
   </crystal>
   <varray name="positions" >
    <v>       0.00689214       0.00749184       0.00442139 </v>
    <v>       0.00658132       0.01696805       0.49327708 </v>
    <v>       0.01321975       0.49871976       0.99865145 </v>
    <v>       0.01840190       0.51821860       0.49804734 </v>
    <v>       0.50405349       0.98896819       0.99749751 </v>
    <v>       0.50137733       0.01367259       0.49008292 </v>
    <v>       0.52491467       0.49660758       0.01643522 </v>
    <v>       0.51291139       0.52895031       0.50932594 </v>
    <v>       0.26515394       0.25963121       0.21939633 </v>
    <v>       0.25987605       0.23759806       0.71934720 </v>
    <v>       0.25636426       0.71314697       0.23473304 </v>
    <v>       0.24513870       0.76000351       0.77192112 </v>
    <v>       0.75838246       0.27637288       0.31315538 </v>
    <v>       0.78251693       0.25295321       0.76294047 </v>
    <v>       0.76143629       0.78751559       0.27189789 </v>
    <v>       0.80925286       0.78242340       0.76394844 </v>
    <v>       0.95408429       0.04904576       0.24759692 </v>
    <v>       0.03807468       0.99330123       0.74845119 </v>
    <v>       0.02683000       0.47695821       0.24769141 </v>
    <v>       0.01957526       0.55271399       0.74816717 </v>
    <v>       0.54167932       0.05634553       0.24284378 </v>
    <v>       0.46732251       0.96417657       0.74343957 </v>
    <v>       0.50612763       0.45067861       0.25997198 </v>
    <v>       0.51545499       0.40885747       0.77702413 </v>
    <v>       0.25429183       0.96416218       0.04959042 </v>
    <v>       0.25284063       0.06592920       0.45792391 </v>
    <v>       0.27071709       0.53206865       0.98858713 </v>
    <v>       0.26571641       0.47310363       0.49950927 </v>
    <v>       0.75542122       0.02376528       0.96094469 </v>
    <v>       0.75532832       0.98123544       0.52973084 </v>
    <v>       0.77024934       0.42560482       0.02267807 </v>
    <v>       0.76557969       0.54455166       0.49352565 </v>
    <v>       0.06834553       0.25345493       0.96752321 </v>
    <v>       0.98194027       0.26780797       0.53799235 </v>
    <v>       0.97933466       0.75336958       0.03257203 </v>
    <v>       0.04709367       0.76864068       0.46230515 </v>
    <v>       0.45754252       0.23016356       0.97346047 </v>
    <v>       0.54016043       0.25357659       0.52814370 </v>
    <v>       0.55563073       0.74074329       0.04870886 </v>
    <v>       0.47743329       0.76175495       0.42771582 </v>
    <v>       0.53739125       0.66335724       0.72582357 </v>
   </varray>
  </structure>
  <varray name="forces" >
   <v>       0.01905871      -0.00420376      -0.00947959 </v>
   <v>       0.02637657      -0.00529853       0.00865014 </v>
   <v>       0.00743446       0.01727862       0.02267820 </v>
   <v>      -0.00717945      -0.00400524       0.01032644 </v>
   <v>       0.01232717       0.02632051       0.03465507 </v>
   <v>       0.02563807      -0.05107268      -0.01376867 </v>
   <v>      -0.02711217      -0.08207359      -0.05054876 </v>
   <v>       0.02466562      -0.00882285       0.07337689 </v>
   <v>      -0.02065324      -0.03280851       0.02030440 </v>
   <v>       0.00332447       0.00902966       0.00053984 </v>
   <v>      -0.03556900      -0.00349764      -0.01880285 </v>
   <v>      -0.00260266      -0.02261930      -0.00958295 </v>
   <v>       0.00599927       0.02371077      -0.10363725 </v>
   <v>      -0.05220466      -0.01532658      -0.02125338 </v>
   <v>       0.02662735      -0.00080054       0.04658562 </v>
   <v>      -0.03877857      -0.01897009      -0.01351475 </v>
   <v>       0.02974807       0.01236102       0.00481568 </v>
   <v>       0.06178066      -0.02345766      -0.00242562 </v>
   <v>       0.02965296      -0.06227662       0.02882221 </v>
   <v>      -0.08423480      -0.05621543       0.02049081 </v>
   <v>       0.03670292      -0.02952349       0.01950121 </v>
   <v>       0.00697502       0.11822729       0.02596259 </v>
   <v>      -0.03176271       0.04995889       0.06680562 </v>
   <v>       0.03242336       0.18535303      -0.07015329 </v>
   <v>       0.01293832      -0.06823339      -0.00186928 </v>
   <v>       0.03804277      -0.06241010       0.00989051 </v>
   <v>      -0.02089187      -0.00791233       0.00902271 </v>
   <v>      -0.00295201       0.02877565       0.05852669 </v>
   <v>       0.01547986      -0.00047653      -0.00706245 </v>
   <v>       0.01446045      -0.00692323       0.01013719 </v>
   <v>      -0.01632358       0.04451561      -0.01874860 </v>
   <v>      -0.00518595       0.02312582      -0.02938313 </v>
   <v>      -0.03363960      -0.01358399      -0.04028662 </v>
   <v>       0.01494845       0.00081119      -0.01808088 </v>
   <v>      -0.03446041      -0.00469136       0.01989281 </v>
   <v>       0.00513488      -0.01042895       0.00600588 </v>
   <v>      -0.01094268       0.02558674       0.09735318 </v>
   <v>       0.03501513      -0.03191846      -0.04092839 </v>
   <v>       0.01051455      -0.01368625       0.03390919 </v>
   <v>       0.04755735      -0.02953199      -0.11414354 </v>
   <v>      -0.11833308       0.10571429      -0.04458289 </v>
  </varray>
  <varray name="stress" >
   <v>      -3.21898117       0.36530063      -0.22814780 </v>
   <v>       0.36530122      -2.03983591      -0.07764313 </v>
   <v>      -0.22814609      -0.07764221      -1.46832765 </v>
  </varray>
  <energy>
   <i name="e_fr_energy">   -124.08956887 </i>
   <i name="e_wo_entrp">   -123.97707118 </i>
   <i name="e_0_energy">   -124.03332002 </i>
  </energy>
  <time name="totalsc">  209.97  210.00</time>
 </calculation>
 <calculation>
  <scstep>
   <time name="dav">   19.29   19.29</time>
   <time name="total">   19.96   19.96</time>
   <energy>
    <i name="alphaZ">    325.71046388 </i>
    <i name="ewald"> -10919.21367209 </i>
    <i name="hartreedc">  -1879.72413842 </i>
    <i name="XCdc">  -1760.94905655 </i>
    <i name="pawpsdc">  15214.89096700 </i>
    <i name="pawaedc"> -12940.18199478 </i>
    <i name="eentropy">     -0.11252019 </i>
    <i name="bandstr">  -1272.11533479 </i>
    <i name="atom">  13117.98845597 </i>
    <i name="e_fr_energy">   -113.70682996 </i>
    <i name="e_wo_entrp">   -113.59430977 </i>
    <i name="e_0_energy">   -113.65056986 </i>
   </energy>
  </scstep>
  <scstep>
   <time name="dav">   19.98   19.98</time>
   <time name="total">   20.64   20.64</time>
   <energy>
    <i name="e_fr_energy">   -113.79143796 </i>
    <i name="e_wo_entrp">   -113.67892070 </i>
    <i name="e_0_energy">   -113.73517933 </i>
   </energy>
  </scstep>
  <scstep>
   <time name="dav">   22.12   22.13</time>
   <time name="total">   22.79   22.79</time>
   <energy>
    <i name="e_fr_energy">   -113.79018934 </i>
    <i name="e_wo_entrp">   -113.67766921 </i>
    <i name="e_0_energy">   -113.73392928 </i>
   </energy>
  </scstep>
  <scstep>
   <time name="dav">   21.50   21.50</time>
   <time name="total">   22.17   22.17</time>
   <energy>
    <i name="e_fr_energy">   -113.78925625 </i>
    <i name="e_wo_entrp">   -113.67673359 </i>
    <i name="e_0_energy">   -113.73299492 </i>
   </energy>
  </scstep>
  <scstep>
   <time name="dav">   21.46   21.46</time>
   <time name="total">   22.14   22.14</time>
   <energy>
    <i name="e_fr_energy">   -113.78899340 </i>
    <i name="e_wo_entrp">   -113.67646803 </i>
    <i name="e_0_energy">   -113.73273072 </i>
   </energy>
  </scstep>
  <scstep>
   <time name="dav">   21.53   21.53</time>
   <time name="total">   22.21   22.21</time>
   <energy>
    <i name="e_fr_energy">   -113.78902263 </i>
    <i name="e_wo_entrp">   -113.67649676 </i>
    <i name="e_0_energy">   -113.73275969 </i>
   </energy>
  </scstep>
  <scstep>
   <time name="dav">   20.46   20.46</time>
   <time name="total">   21.05   21.05</time>
   <energy>
    <i name="e_fr_energy">   -113.78902286 </i>
    <i name="e_wo_entrp">   -113.67649698 </i>
    <i name="e_0_energy">   -113.73275992 </i>
   </energy>
  </scstep>
  <scstep>
   <time name="dav">   17.38   17.38</time>
   <time name="total">   17.97   17.97</time>
   <energy>
    <i name="e_fr_energy">   -113.78902138 </i>
    <i name="e_wo_entrp">   -113.67649541 </i>
    <i name="e_0_energy">   -113.73275840 </i>
   </energy>
  </scstep>
  <scstep>
   <time name="dav">   12.95   12.95</time>
   <time name="total">   13.05   13.05</time>
   <energy>
    <i name="alphaZ">    325.71046388 </i>
    <i name="ewald"> -10919.21367209 </i>
    <i name="hartreedc">  -1879.64826122 </i>
    <i name="XCdc">  -1760.94454967 </i>
    <i name="pawpsdc">  15207.45731265 </i>
    <i name="pawaedc"> -12932.74145138 </i>
    <i name="eentropy">     -0.11252607 </i>
    <i name="bandstr">  -1272.28479341 </i>
    <i name="atom">  13117.98845597 </i>
    <i name="e_fr_energy">   -113.78902135 </i>
    <i name="e_wo_entrp">   -113.67649528 </i>
    <i name="e_0_energy">   -113.73275831 </i>
   </energy>
  </scstep>
  <structure>
   <crystal>
    <varray name="basis" >
     <v>      12.57433319       0.00000000       0.00000000 </v>
     <v>       0.00000000      12.57433319       0.00000000 </v>
     <v>       0.00000000       0.00000000      12.57433319 </v>
    </varray>
    <i name="volume">   1988.17629733 </i>
    <varray name="rec_basis" >
     <v>       0.07952708       0.00000000       0.00000000 </v>
     <v>       0.00000000       0.07952708       0.00000000 </v>
     <v>       0.00000000       0.00000000       0.07952708 </v>
    </varray>
   </crystal>
   <varray name="positions" >
    <v>       0.00750183       0.00793301       0.00458906 </v>
    <v>       0.00691867       0.01678601       0.49369153 </v>
    <v>       0.01339836       0.49919289       0.99878890 </v>
    <v>       0.01883551       0.51749360       0.49850812 </v>
    <v>       0.50471583       0.98938433       0.99845025 </v>
    <v>       0.50185196       0.01268785       0.48934051 </v>
    <v>       0.52426331       0.49523989       0.01726986 </v>
    <v>       0.51331354       0.52718854       0.50861760 </v>
    <v>       0.26493183       0.26017794       0.22049092 </v>
    <v>       0.25928389       0.23713742       0.71877936 </v>
    <v>       0.25450135       0.71411158       0.23552379 </v>
    <v>       0.24717796       0.76034289       0.77348685 </v>
    <v>       0.75879581       0.27663289       0.31042480 </v>
    <v>       0.77948638       0.25294314       0.76177224 </v>
    <v>       0.76204278       0.78691191       0.27311803 </v>
    <v>       0.80935376       0.78183385       0.76362415 </v>
    <v>       0.95459527       0.04869056       0.24781292 </v>
    <v>       0.04028496       0.99249066       0.74871165 </v>
    <v>       0.02593170       0.47625183       0.24827250 </v>
    <v>       0.02018638       0.55199344       0.74887243 </v>
    <v>       0.54263619       0.05525872       0.24265413 </v>
    <v>       0.46724867       0.96595908       0.74417044 </v>
    <v>       0.50735910       0.45206463       0.25934813 </v>
    <v>       0.51303245       0.41119527       0.77514456 </v>
    <v>       0.25481923       0.96299045       0.04995692 </v>
    <v>       0.25312019       0.06376855       0.45722087 </v>
    <v>       0.27034353       0.53245823       0.99099447 </v>
    <v>       0.26543595       0.47263044       0.49817109 </v>
    <v>       0.75596291       0.02429683       0.96029621 </v>
    <v>       0.75580431       0.98076553       0.53031181 </v>
    <v>       0.76999011       0.42672732       0.02024056 </v>
    <v>       0.76524195       0.54377143       0.49430704 </v>
    <v>       0.06794091       0.25384060       0.96704761 </v>
    <v>       0.98199220       0.26762383       0.53775721 </v>
    <v>       0.97872468       0.75359311       0.03324646 </v>
    <v>       0.04623550       0.76849394       0.46357668 </v>
    <v>       0.45665647       0.23235868       0.97516201 </v>
    <v>       0.54050767       0.25343835       0.52661537 </v>
    <v>       0.55646138       0.74046440       0.04918773 </v>
    <v>       0.47876645       0.76023540       0.42528077 </v>
    <v>       0.53627421       0.66571138       0.72616448 </v>
   </varray>
  </structure>
  <varray name="forces" >
   <v>       0.01694353      -0.00817149      -0.01641183 </v>
   <v>       0.01716347      -0.00877233       0.01379910 </v>
   <v>       0.00203503       0.02180189       0.03403994 </v>
   <v>      -0.02121734       0.00127503       0.01391097 </v>
   <v>       0.01136207       0.02444156       0.01395858 </v>
   <v>       0.02065358      -0.07695933       0.00698285 </v>
   <v>      -0.01690103      -0.02843369      -0.13570185 </v>
   <v>       0.02464857       0.04142033       0.13320843 </v>
   <v>      -0.02396319      -0.03041120       0.01888708 </v>
   <v>       0.00797379       0.00842941      -0.00086169 </v>
   <v>      -0.04700320      -0.00260820      -0.00806662 </v>
   <v>      -0.02568959      -0.03555012      -0.00760382 </v>
   <v>       0.01425523       0.02637722      -0.08851232 </v>
   <v>      -0.05078291      -0.01008103      -0.03092630 </v>
   <v>       0.02884357      -0.00585923       0.03588664 </v>
   <v>      -0.03121706      -0.02256358      -0.00786203 </v>
   <v>       0.04296877       0.01410715       0.00172853 </v>
   <v>       0.05850901      -0.02385347      -0.01111892 </v>
   <v>       0.02345515      -0.04981356       0.03515638 </v>
   <v>      -0.07189085      -0.04471552       0.01706491 </v>
   <v>       0.04976529      -0.02720175       0.03611727 </v>
   <v>       0.00531878       0.11164073       0.00069063 </v>
   <v>      -0.04256037       0.01457891       0.12980841 </v>
   <v>       0.04052196       0.16767127      -0.04203583 </v>
   <v>       0.00997484      -0.04872708      -0.01300691 </v>
   <v>       0.05108990      -0.05506642       0.00850343 </v>
   <v>      -0.02858330      -0.00231839       0.00558444 </v>
   <v>       0.00921624       0.02480109       0.03839966 </v>
   <v>       0.01085549      -0.00721799      -0.01516387 </v>
   <v>      -0.00186384      -0.00225587       0.02049026 </v>
   <v>      -0.01022418       0.03120346      -0.01626024 </v>
   <v>       0.01190728       0.03326885      -0.03447491 </v>
   <v>      -0.02446316      -0.01677744      -0.03512630 </v>
   <v>       0.00574752      -0.00443462      -0.01259103 </v>
   <v>      -0.03161226      -0.00114837       0.01992348 </v>
   <v>       0.00427108      -0.01856930      -0.00482763 </v>
   <v>      -0.00745872      -0.02445717       0.08302681 </v>
   <v>       0.02108345      -0.05223718      -0.03594858 </v>
   <v>       0.00006970       0.00589471       0.02655934 </v>
   <v>       0.04692491      -0.00613943      -0.09059845 </v>
   <v>      -0.10012721       0.08743216      -0.08662803 </v>
  </varray>
  <varray name="stress" >
   <v>      -3.20960731       0.32848097      -0.23644112 </v>
   <v>       0.32848099      -2.53604824      -0.17226498 </v>
   <v>      -0.23644129      -0.17226595      -1.51226924 </v>
  </varray>
  <energy>
   <i name="e_fr_energy">   -124.12305904 </i>
   <i name="e_wo_entrp">   -124.01053297 </i>
   <i name="e_0_energy">   -124.06679600 </i>
  </energy>
  <time name="totalsc">  201.72  202.20</time>
 </calculation>
 <calculation>
  <scstep>
   <time name="dav">   19.26   19.26</time>
   <time name="total">   19.92   19.92</time>
   <energy>
    <i name="alphaZ">    325.71046388 </i>
    <i name="ewald"> -10920.92419935 </i>
    <i name="hartreedc">  -1877.99843907 </i>
    <i name="XCdc">  -1760.96921284 </i>
    <i name="pawpsdc">  15207.58605369 </i>
    <i name="pawaedc"> -12932.87010948 </i>
    <i name="eentropy">     -0.11255274 </i>
    <i name="bandstr">  -1272.06579928 </i>
    <i name="atom">  13117.98845597 </i>
    <i name="e_fr_energy">   -113.65533922 </i>
    <i name="e_wo_entrp">   -113.54278648 </i>
    <i name="e_0_energy">   -113.59906285 </i>
   </energy>
  </scstep>
  <scstep>
   <time name="dav">   20.18   20.18</time>
   <time name="total">   20.85   20.85</time>
   <energy>
    <i name="e_fr_energy">   -113.82298182 </i>
    <i name="e_wo_entrp">   -113.71043351 </i>
    <i name="e_0_energy">   -113.76670766 </i>
   </energy>
  </scstep>
  <scstep>
   <time name="dav">   22.10   22.10</time>
   <time name="total">   22.76   22.76</time>
   <energy>
    <i name="e_fr_energy">   -113.82080841 </i>
    <i name="e_wo_entrp">   -113.70825738 </i>
    <i name="e_0_energy">   -113.76453289 </i>
   </energy>
  </scstep>
  <scstep>
   <time name="dav">   21.55   21.56</time>
   <time name="total">   22.23   22.23</time>
   <energy>
    <i name="e_fr_energy">   -113.81916738 </i>
    <i name="e_wo_entrp">   -113.70661383 </i>
    <i name="e_0_energy">   -113.76289060 </i>
   </energy>
  </scstep>
  <scstep>
   <time name="dav">   21.02   21.02</time>
   <time name="total">   21.69   21.69</time>
   <energy>
    <i name="e_fr_energy">   -113.81855633 </i>
    <i name="e_wo_entrp">   -113.70600012 </i>
    <i name="e_0_energy">   -113.76227823 </i>
   </energy>
  </scstep>
  <scstep>
   <time name="dav">   21.81   21.81</time>
   <time name="total">   22.49   22.49</time>
   <energy>
    <i name="e_fr_energy">   -113.81860763 </i>
    <i name="e_wo_entrp">   -113.70605062 </i>
    <i name="e_0_energy">   -113.76232913 </i>
   </energy>
  </scstep>
  <scstep>
   <time name="dav">   23.61   23.61</time>
   <time name="total">   24.27   24.28</time>
   <energy>
    <i name="e_fr_energy">   -113.81861224 </i>
    <i name="e_wo_entrp">   -113.70605508 </i>
    <i name="e_0_energy">   -113.76233366 </i>
   </energy>
  </scstep>
  <scstep>
   <time name="dav">   18.79   18.79</time>
   <time name="total">   18.89   18.90</time>
   <energy>
    <i name="alphaZ">    325.71046388 </i>
    <i name="ewald"> -10920.92419935 </i>
    <i name="hartreedc">  -1877.94509886 </i>
    <i name="XCdc">  -1760.95696003 </i>
    <i name="pawpsdc">  15201.06192471 </i>
    <i name="pawaedc"> -12926.34088862 </i>
    <i name="eentropy">     -0.11255728 </i>
    <i name="bandstr">  -1272.29975220 </i>
    <i name="atom">  13117.98845597 </i>
    <i name="e_fr_energy">   -113.81861178 </i>
    <i name="e_wo_entrp">   -113.70605450 </i>
    <i name="e_0_energy">   -113.76233314 </i>
   </energy>
  </scstep>
  <structure>
   <crystal>
    <varray name="basis" >
     <v>      12.57433319       0.00000000       0.00000000 </v>
     <v>       0.00000000      12.57433319       0.00000000 </v>
     <v>       0.00000000       0.00000000      12.57433319 </v>
    </varray>
    <i name="volume">   1988.17629733 </i>
    <varray name="rec_basis" >
     <v>       0.07952708       0.00000000       0.00000000 </v>
     <v>       0.00000000       0.07952708       0.00000000 </v>
     <v>       0.00000000       0.00000000       0.07952708 </v>
    </varray>
   </crystal>
   <varray name="positions" >
    <v>       0.00828369       0.00851674       0.00467248 </v>
    <v>       0.00720322       0.01642190       0.49442296 </v>
    <v>       0.01361498       0.49999186       0.99908084 </v>
    <v>       0.01915185       0.51656512       0.49918255 </v>
    <v>       0.50555590       0.99038631       0.99929698 </v>
    <v>       0.50232538       0.01111235       0.48864569 </v>
    <v>       0.52354013       0.49411265       0.01661579 </v>
    <v>       0.51399431       0.52549886       0.50865260 </v>
    <v>       0.26465123       0.26132226       0.22208450 </v>
    <v>       0.25842906       0.23629381       0.71789689 </v>
    <v>       0.25172803       0.71581926       0.23716130 </v>
    <v>       0.25017980       0.76094106       0.77617521 </v>
    <v>       0.75957065       0.27679016       0.30688345 </v>
    <v>       0.77504276       0.25308688       0.75985484 </v>
    <v>       0.76294185       0.78583660       0.27463716 </v>
    <v>       0.81004142       0.78099086       0.76336747 </v>
    <v>       0.95527837       0.04802212       0.24819759 </v>
    <v>       0.04334012       0.99141019       0.74901122 </v>
    <v>       0.02410210       0.47563676       0.24906858 </v>
    <v>       0.02201923       0.55136627       0.74966796 </v>
    <v>       0.54410691       0.05395488       0.24265773 </v>
    <v>       0.46712183       0.96805997       0.74458436 </v>
    <v>       0.50932256       0.45328624       0.25947486 </v>
    <v>       0.50893173       0.41434527       0.77302730 </v>
    <v>       0.25551994       0.96185111       0.05048348 </v>
    <v>       0.25365530       0.06081136       0.45609962 </v>
    <v>       0.26982588       0.53321089       0.99484993 </v>
    <v>       0.26530659       0.47154856       0.49535560 </v>
    <v>       0.75667998       0.02517389       0.95921813 </v>
    <v>       0.75607551       0.98026645       0.53128733 </v>
    <v>       0.76968168       0.42813237       0.01658728 </v>
    <v>       0.76502406       0.54231139       0.49584447 </v>
    <v>       0.06772863       0.25427748       0.96661479 </v>
    <v>       0.98179067       0.26724310       0.53766609 </v>
    <v>       0.97805896       0.75402653       0.03416506 </v>
    <v>       0.04470943       0.76800694       0.46548326 </v>
    <v>       0.45561375       0.23440497       0.97715782 </v>
    <v>       0.54061265       0.25285355       0.52435567 </v>
    <v>       0.55752496       0.74056528       0.04949693 </v>
    <v>       0.48048966       0.75864378       0.42231042 </v>
    <v>       0.53517417       0.66755354       0.72570380 </v>
   </varray>
  </structure>
  <varray name="forces" >
   <v>       0.01175899      -0.01303446      -0.01855721 </v>
   <v>       0.01900982      -0.00370609       0.02067770 </v>
   <v>       0.00788330       0.00867194       0.03749215 </v>
   <v>      -0.02344177       0.00144982       0.02122759 </v>
   <v>       0.01296286      -0.00053080       0.00552954 </v>
   <v>       0.02229668      -0.08545660       0.03063181 </v>
   <v>      -0.00928696       0.02485952      -0.10521851 </v>
   <v>      -0.00429083       0.07179596       0.12830380 </v>
   <v>      -0.02508057      -0.02601874       0.01955679 </v>
   <v>       0.01113329       0.00513956       0.00260570 </v>
   <v>      -0.03863564       0.00273069      -0.00334259 </v>
   <v>      -0.06503309      -0.05122599      -0.00650724 </v>
   <v>       0.01599178       0.03496275      -0.07579149 </v>
   <v>      -0.04506353      -0.01305337      -0.04587280 </v>
   <v>       0.01802100      -0.00372707       0.02099832 </v>
   <v>      -0.02887579      -0.02616211      -0.00086256 </v>
   <v>       0.04179757       0.00164634       0.00756668 </v>
   <v>       0.02235103      -0.02644899      -0.00059597 </v>
   <v>       0.01401382      -0.05869932       0.00651387 </v>
   <v>      -0.04859071      -0.04226907       0.00928124 </v>
   <v>       0.04985046      -0.00434697       0.04274701 </v>
   <v>       0.00787554       0.11319717      -0.01755093 </v>
   <v>      -0.04016663       0.00537707       0.10691503 </v>
   <v>       0.04532230       0.10925767      -0.04555884 </v>
   <v>       0.00250847      -0.03027286      -0.01802327 </v>
   <v>       0.05208173      -0.04427557       0.00634316 </v>
   <v>      -0.02983925       0.00561030      -0.01346134 </v>
   <v>       0.01365032       0.00910822       0.03603027 </v>
   <v>       0.01067888      -0.01243343      -0.00484366 </v>
   <v>       0.00313584       0.00440794       0.01028415 </v>
   <v>      -0.01236345       0.02854011      -0.00978721 </v>
   <v>       0.02601563       0.03597020      -0.02000224 </v>
   <v>      -0.01927043      -0.02534752      -0.02348247 </v>
   <v>      -0.00278252      -0.01966490      -0.00417068 </v>
   <v>      -0.02736324      -0.00231769       0.01867383 </v>
   <v>      -0.00365210      -0.02558318      -0.01561111 </v>
   <v>       0.01536652      -0.03754320       0.06510211 </v>
   <v>       0.03166184      -0.05620458      -0.03113490 </v>
   <v>      -0.00558057       0.01304524       0.01480858 </v>
   <v>       0.04915984       0.02030776      -0.05855873 </v>
   <v>      -0.07521038       0.11224424      -0.09235560 </v>
  </varray>
  <varray name="stress" >
   <v>      -3.15254830       0.25060179      -0.26812459 </v>
   <v>       0.25060178      -2.80754619      -0.19778486 </v>
   <v>      -0.26812579      -0.19778472      -1.65222250 </v>
  </varray>
  <energy>
   <i name="e_fr_energy">   -124.15429889 </i>
   <i name="e_wo_entrp">   -124.04174161 </i>
   <i name="e_0_energy">   -124.09802025 </i>
  </energy>
  <time name="totalsc">  192.87  193.04</time>
 </calculation>
 <calculation>
  <scstep>
   <time name="dav">   19.25   19.25</time>
   <time name="total">   19.92   19.92</time>
   <energy>
    <i name="alphaZ">    325.71046388 </i>
    <i name="ewald"> -10922.44903505 </i>
    <i name="hartreedc">  -1876.47846366 </i>
    <i name="XCdc">  -1760.99066882 </i>
    <i name="pawpsdc">  15201.07118430 </i>
    <i name="pawaedc"> -12926.34978353 </i>
    <i name="eentropy">     -0.11258842 </i>
    <i name="bandstr">  -1272.00611969 </i>
    <i name="atom">  13117.98845597 </i>
    <i name="e_fr_energy">   -113.61655501 </i>
    <i name="e_wo_entrp">   -113.50396659 </i>
    <i name="e_0_energy">   -113.56026080 </i>
   </energy>
  </scstep>
  <scstep>
   <time name="dav">   20.27   20.27</time>
   <time name="total">   20.93   20.94</time>
   <energy>
    <i name="e_fr_energy">   -113.85318225 </i>
    <i name="e_wo_entrp">   -113.74059630 </i>
    <i name="e_0_energy">   -113.79688928 </i>
   </energy>
  </scstep>
  <scstep>
   <time name="dav">   22.08   22.08</time>
   <time name="total">   22.75   22.75</time>
   <energy>
    <i name="e_fr_energy">   -113.85018497 </i>
    <i name="e_wo_entrp">   -113.73759511 </i>
    <i name="e_0_energy">   -113.79389004 </i>
   </energy>
  </scstep>
  <scstep>
   <time name="dav">   21.48   21.48</time>
   <time name="total">   22.15   22.15</time>
   <energy>
    <i name="e_fr_energy">   -113.84798709 </i>
    <i name="e_wo_entrp">   -113.73539445 </i>
    <i name="e_0_energy">   -113.79169077 </i>
   </energy>
  </scstep>
  <scstep>
   <time name="dav">   20.98   20.98</time>
   <time name="total">   21.66   21.66</time>
   <energy>
    <i name="e_fr_energy">   -113.84695800 </i>
[...]
       <r>    0.4719    1.0000 </r>
       <r>    0.4842    1.0000 </r>
       <r>    0.4980    1.0000 </r>
       <r>    0.5081    1.0000 </r>
       <r>    0.5302    1.0000 </r>
       <r>    0.5657    1.0000 </r>
       <r>    0.6517    1.0000 </r>
       <r>    0.7094    1.0000 </r>
       <r>    0.8919    1.0000 </r>
       <r>    1.4749    0.5295 </r>
       <r>    3.8058    0.0000 </r>
       <r>    3.8782    0.0000 </r>
       <r>    3.9172    0.0000 </r>
       <r>    3.9732    0.0000 </r>
       <r>    4.0168    0.0000 </r>
       <r>    4.0668    0.0000 </r>
       <r>    4.1142    0.0000 </r>
       <r>    4.1492    0.0000 </r>
       <r>    4.2053    0.0000 </r>
       <r>    4.2283    0.0000 </r>
       <r>    4.2691    0.0000 </r>
       <r>    4.7079    0.0000 </r>
       <r>    4.8626    0.0000 </r>
       <r>    5.1266    0.0000 </r>
       <r>    5.1795    0.0000 </r>
       <r>    5.2262    0.0000 </r>
       <r>    5.2478    0.0000 </r>
       <r>    5.3095    0.0000 </r>
       <r>    5.3416    0.0000 </r>
       <r>    5.3838    0.0000 </r>
       <r>    5.4269    0.0000 </r>
       <r>    5.4742    0.0000 </r>
       <r>    5.5044    0.0000 </r>
       <r>    5.6469    0.0000 </r>
       <r>    5.8373    0.0000 </r>
       <r>    6.0524    0.0000 </r>
       <r>    6.0845    0.0000 </r>
       <r>    6.1571    0.0000 </r>
       <r>    6.2099    0.0000 </r>
       <r>    6.2442    0.0000 </r>
      </set>
     </set>
    </set>
   </array>
  </eigenvalues>
  <separator name="orbital magnetization" >
   <v name="MAGDIPOLOUT">      0.00000000      0.00000000      0.00000000</v>
  </separator>
  <dos>
   <i name="efermi">      1.48534869 </i>
   <total>
    <array>
     <dimension dim="1">gridpoints</dimension>
     <dimension dim="2">spin</dimension>
     <field>energy</field>
     <field>total</field>
     <field>integrated</field>
     <set>
      <set comment="spin 1">
       <r>   -21.5591     0.0000     0.0000 </r>
       <r>   -21.4595     0.0000     0.0000 </r>
       <r>   -21.3598     0.0000     0.0000 </r>
       <r>   -21.2601     0.0000     0.0000 </r>
       <r>   -21.1605     0.0000     0.0000 </r>
       <r>   -21.0608     0.0000     0.0000 </r>
       <r>   -20.9611     0.0000     0.0000 </r>
       <r>   -20.8615     0.0000     0.0000 </r>
       <r>   -20.7618     0.0000     0.0000 </r>
       <r>   -20.6621     0.0000     0.0000 </r>
       <r>   -20.5625     0.0000     0.0000 </r>
       <r>   -20.4628     0.0000     0.0000 </r>
       <r>   -20.3631     0.0000     0.0000 </r>
       <r>   -20.2635     0.0000     0.0000 </r>
       <r>   -20.1638     0.0006     0.0001 </r>
       <r>   -20.0642     0.0126     0.0013 </r>
       <r>   -19.9645     0.1566     0.0169 </r>
       <r>   -19.8648     1.2168     0.1382 </r>
       <r>   -19.7652     5.9190     0.7281 </r>
       <r>   -19.6655    18.0977     2.5318 </r>
       <r>   -19.5658    34.9415     6.0143 </r>
       <r>   -19.4662    42.8344    10.2834 </r>
       <r>   -19.3665    33.5570    13.6278 </r>
       <r>   -19.2668    16.9193    15.3141 </r>
       <r>   -19.1672     5.5276    15.8650 </r>
       <r>   -19.0675     1.1759    15.9822 </r>
       <r>   -18.9678     0.1631    15.9984 </r>
       <r>   -18.8682     0.0147    15.9999 </r>
       <r>   -18.7685     0.0009    16.0000 </r>
       <r>   -18.6688     0.0000    16.0000 </r>
       <r>   -18.5692     0.0000    16.0000 </r>
       <r>   -18.4695     0.0000    16.0000 </r>
       <r>   -18.3698     0.0000    16.0000 </r>
       <r>   -18.2702     0.0000    16.0000 </r>
       <r>   -18.1705     0.0000    16.0000 </r>
       <r>   -18.0708     0.0000    16.0000 </r>
       <r>   -17.9712     0.0000    16.0000 </r>
       <r>   -17.8715     0.0000    16.0000 </r>
       <r>   -17.7719     0.0000    16.0000 </r>
       <r>   -17.6722     0.0000    16.0000 </r>
       <r>   -17.5725     0.0000    16.0000 </r>
       <r>   -17.4729     0.0000    16.0000 </r>
       <r>   -17.3732     0.0000    16.0000 </r>
       <r>   -17.2735     0.0000    16.0000 </r>
       <r>   -17.1739     0.0000    16.0000 </r>
       <r>   -17.0742     0.0000    16.0000 </r>
       <r>   -16.9745     0.0000    16.0000 </r>
       <r>   -16.8749     0.0000    16.0000 </r>
       <r>   -16.7752     0.0000    16.0000 </r>
       <r>   -16.6755     0.0000    16.0000 </r>
       <r>   -16.5759     0.0000    16.0000 </r>
       <r>   -16.4762     0.0000    16.0000 </r>
       <r>   -16.3765     0.0000    16.0000 </r>
       <r>   -16.2769     0.0000    16.0000 </r>
       <r>   -16.1772     0.0000    16.0000 </r>
       <r>   -16.0775     0.0000    16.0000 </r>
       <r>   -15.9779     0.0000    16.0000 </r>
       <r>   -15.8782     0.0000    16.0000 </r>
       <r>   -15.7786     0.0000    16.0000 </r>
       <r>   -15.6789     0.0000    16.0000 </r>
       <r>   -15.5792     0.0000    16.0000 </r>
       <r>   -15.4796     0.0000    16.0000 </r>
       <r>   -15.3799     0.0000    16.0000 </r>
       <r>   -15.2802     0.0000    16.0000 </r>
       <r>   -15.1806     0.0000    16.0000 </r>
       <r>   -15.0809     0.0000    16.0000 </r>
       <r>   -14.9812     0.0000    16.0000 </r>
       <r>   -14.8816     0.0000    16.0000 </r>
       <r>   -14.7819     0.0000    16.0000 </r>
       <r>   -14.6822     0.0000    16.0000 </r>
       <r>   -14.5826     0.0000    16.0000 </r>
       <r>   -14.4829     0.0000    16.0000 </r>
       <r>   -14.3832     0.0000    16.0000 </r>
       <r>   -14.2836     0.0000    16.0000 </r>
       <r>   -14.1839     0.0000    16.0000 </r>
       <r>   -14.0842     0.0000    16.0000 </r>
       <r>   -13.9846     0.0000    16.0000 </r>
       <r>   -13.8849     0.0000    16.0000 </r>
       <r>   -13.7852     0.0000    16.0000 </r>
       <r>   -13.6856     0.0000    16.0000 </r>
       <r>   -13.5859     0.0000    16.0000 </r>
       <r>   -13.4863     0.0000    16.0000 </r>
       <r>   -13.3866     0.0000    16.0000 </r>
       <r>   -13.2869     0.0000    16.0000 </r>
       <r>   -13.1873     0.0000    16.0000 </r>
       <r>   -13.0876     0.0000    16.0000 </r>
       <r>   -12.9879     0.0000    16.0000 </r>
       <r>   -12.8883     0.0000    16.0000 </r>
       <r>   -12.7886     0.0000    16.0000 </r>
       <r>   -12.6889     0.0000    16.0000 </r>
       <r>   -12.5893     0.0000    16.0000 </r>
       <r>   -12.4896     0.0000    16.0000 </r>
       <r>   -12.3899     0.0000    16.0000 </r>
       <r>   -12.2903     0.0000    16.0000 </r>
       <r>   -12.1906     0.0000    16.0000 </r>
       <r>   -12.0909     0.0000    16.0000 </r>
       <r>   -11.9913     0.0000    16.0000 </r>
       <r>   -11.8916     0.0000    16.0000 </r>
       <r>   -11.7919     0.0000    16.0000 </r>
       <r>   -11.6923     0.0000    16.0000 </r>
       <r>   -11.5926     0.0000    16.0000 </r>
       <r>   -11.4930     0.0000    16.0000 </r>
       <r>   -11.3933     0.0002    16.0000 </r>
       <r>   -11.2936     0.0037    16.0004 </r>
       <r>   -11.1940     0.0419    16.0046 </r>
       <r>   -11.0943     0.2989    16.0344 </r>
       <r>   -10.9946     1.3727    16.1712 </r>
       <r>   -10.8950     4.2111    16.5909 </r>
       <r>   -10.7953     9.2448    17.5123 </r>
       <r>   -10.6956    16.0961    19.1165 </r>
       <r>   -10.5960    24.6459    21.5728 </r>
       <r>   -10.4963    35.3763    25.0986 </r>
       <r>   -10.3966    49.3078    30.0129 </r>
       <r>   -10.2970    66.4379    36.6344 </r>
       <r>   -10.1973    80.5874    44.6662 </r>
       <r>   -10.0976    80.7139    52.7105 </r>
       <r>    -9.9980    63.6449    59.0537 </r>
       <r>    -9.8983    39.3647    62.9770 </r>
       <r>    -9.7986    19.5052    64.9210 </r>
       <r>    -9.6990     7.7927    65.6977 </r>
       <r>    -9.5993     2.4085    65.9377 </r>
       <r>    -9.4996     0.5361    65.9911 </r>
       <r>    -9.4000     0.0807    65.9992 </r>
       <r>    -9.3003     0.0079    65.9999 </r>
       <r>    -9.2007     0.0005    66.0000 </r>
       <r>    -9.1010     0.0000    66.0000 </r>
       <r>    -9.0013     0.0000    66.0000 </r>
       <r>    -8.9017     0.0000    66.0000 </r>
       <r>    -8.8020     0.0000    66.0000 </r>
       <r>    -8.7023     0.0000    66.0000 </r>
       <r>    -8.6027     0.0000    66.0000 </r>
       <r>    -8.5030     0.0000    66.0000 </r>
       <r>    -8.4033     0.0000    66.0000 </r>
       <r>    -8.3037     0.0000    66.0000 </r>
       <r>    -8.2040     0.0000    66.0000 </r>
       <r>    -8.1043     0.0000    66.0000 </r>
       <r>    -8.0047     0.0000    66.0000 </r>
       <r>    -7.9050     0.0000    66.0000 </r>
       <r>    -7.8053     0.0000    66.0000 </r>
       <r>    -7.7057     0.0000    66.0000 </r>
       <r>    -7.6060     0.0000    66.0000 </r>
       <r>    -7.5063     0.0000    66.0000 </r>
       <r>    -7.4067     0.0004    66.0000 </r>
       <r>    -7.3070     0.0049    66.0005 </r>
       <r>    -7.2073     0.0385    66.0044 </r>
       <r>    -7.1077     0.2065    66.0250 </r>
       <r>    -7.0080     0.7794    66.1026 </r>
       <r>    -6.9084     2.1484    66.3168 </r>
       <r>    -6.8087     4.7399    66.7892 </r>
       <r>    -6.7090    10.2878    67.8145 </r>
       <r>    -6.6094    25.6170    70.3676 </r>
       <r>    -6.5097    61.3842    76.4855 </r>
       <r>    -6.4100   112.3274    87.6806 </r>
       <r>    -6.3104   142.4735   101.8803 </r>
       <r>    -6.2107   123.5563   114.1945 </r>
       <r>    -6.1110    76.6068   121.8295 </r>
       <r>    -6.0114    38.7259   125.6892 </r>
       <r>    -5.9117    19.7560   127.6581 </r>
       <r>    -5.8120    11.2893   128.7833 </r>
       <r>    -5.7124     6.5634   129.4374 </r>
       <r>    -5.6127     3.4469   129.7810 </r>
       <r>    -5.5130     1.5112   129.9316 </r>
       <r>    -5.4134     0.5219   129.9836 </r>
       <r>    -5.3137     0.1355   129.9971 </r>
       <r>    -5.2140     0.0254   129.9996 </r>
       <r>    -5.1144     0.0033   130.0000 </r>
       <r>    -5.0147     0.0003   130.0000 </r>
       <r>    -4.9151     0.0000   130.0000 </r>
       <r>    -4.8154     0.0000   130.0000 </r>
       <r>    -4.7157     0.0000   130.0000 </r>
       <r>    -4.6161     0.0000   130.0000 </r>
       <r>    -4.5164     0.0000   130.0000 </r>
       <r>    -4.4167     0.0000   130.0000 </r>
       <r>    -4.3171     0.0000   130.0000 </r>
       <r>    -4.2174     0.0000   130.0000 </r>
       <r>    -4.1177     0.0000   130.0000 </r>
       <r>    -4.0181     0.0000   130.0000 </r>
       <r>    -3.9184     0.0000   130.0000 </r>
       <r>    -3.8187     0.0000   130.0000 </r>
       <r>    -3.7191     0.0000   130.0000 </r>
       <r>    -3.6194     0.0000   130.0000 </r>
       <r>    -3.5197     0.0000   130.0000 </r>
       <r>    -3.4201     0.0000   130.0000 </r>
       <r>    -3.3204     0.0000   130.0000 </r>
       <r>    -3.2207     0.0000   130.0000 </r>
       <r>    -3.1211     0.0000   130.0000 </r>
       <r>    -3.0214     0.0000   130.0000 </r>
       <r>    -2.9217     0.0000   130.0000 </r>
       <r>    -2.8221     0.0000   130.0000 </r>
       <r>    -2.7224     0.0000   130.0000 </r>
       <r>    -2.6228     0.0001   130.0000 </r>
       <r>    -2.5231     0.0013   130.0001 </r>
       <r>    -2.4234     0.0177   130.0019 </r>
       <r>    -2.3238     0.1547   130.0173 </r>
       <r>    -2.2241     0.8783   130.1048 </r>
       <r>    -2.1244     3.2896   130.4327 </r>
       <r>    -2.0248     8.3681   131.2667 </r>
       <r>    -1.9251    15.1711   132.7787 </r>
       <r>    -1.8254    21.2934   134.9009 </r>
       <r>    -1.7258    26.1170   137.5039 </r>
       <r>    -1.6261    31.0257   140.5961 </r>
       <r>    -1.5264    35.7217   144.1563 </r>
       <r>    -1.4268    37.1180   147.8557 </r>
       <r>    -1.3271    32.9193   151.1366 </r>
       <r>    -1.2274    25.1254   153.6407 </r>
       <r>    -1.1278    19.1583   155.5501 </r>
       <r>    -1.0281    20.1061   157.5540 </r>
       <r>    -0.9284    29.1648   160.4607 </r>
       <r>    -0.8288    41.6926   164.6160 </r>
       <r>    -0.7291    50.0705   169.6063 </r>
       <r>    -0.6295    50.6750   174.6568 </r>
       <r>    -0.5298    47.0775   179.3488 </r>
       <r>    -0.4301    45.7240   183.9059 </r>
       <r>    -0.3305    49.8431   188.8735 </r>
       <r>    -0.2308    58.7667   194.7305 </r>
       <r>    -0.1311    70.6725   201.7741 </r>
       <r>    -0.0315    83.2966   210.0758 </r>
       <r>     0.0682    93.9742   219.4418 </r>
       <r>     0.1679   100.5206   229.4602 </r>
       <r>     0.2675   101.3534   239.5616 </r>
       <r>     0.3672    95.9798   249.1274 </r>
       <r>     0.4669    85.3138   257.6302 </r>
       <r>     0.5665    70.0660   264.6134 </r>
       <r>     0.6662    51.7315   269.7692 </r>
       <r>     0.7659    34.4556   273.2032 </r>
       <r>     0.8655    21.7700   275.3729 </r>
       <r>     0.9652    13.4419   276.7126 </r>
       <r>     1.0649     7.6169   277.4718 </r>
       <r>     1.1645     3.7496   277.8455 </r>
       <r>     1.2642     2.2671   278.0714 </r>
       <r>     1.3639     3.1288   278.3833 </r>
       <r>     1.4635     4.9586   278.8775 </r>
       <r>     1.5632     5.4059   279.4162 </r>
       <r>     1.6628     3.7304   279.7880 </r>
       <r>     1.7625     1.6112   279.9486 </r>
       <r>     1.8622     0.4345   279.9919 </r>
       <r>     1.9618     0.0730   279.9992 </r>
       <r>     2.0615     0.0076   279.9999 </r>
       <r>     2.1612     0.0005   280.0000 </r>
       <r>     2.2608     0.0000   280.0000 </r>
       <r>     2.3605     0.0000   280.0000 </r>
       <r>     2.4602     0.0000   280.0000 </r>
       <r>     2.5598     0.0006   280.0001 </r>
       <r>     2.6595     0.0073   280.0008 </r>
       <r>     2.7592     0.0625   280.0070 </r>
       <r>     2.8588     0.3558   280.0425 </r>
       <r>     2.9585     1.3659   280.1786 </r>
       <r>     3.0582     3.6240   280.5398 </r>
       <r>     3.1578     6.9282   281.2303 </r>
       <r>     3.2575    10.1531   282.2422 </r>
       <r>     3.3572    12.1470   283.4528 </r>
       <r>     3.4568    12.2476   284.6735 </r>
       <r>     3.5565    10.7037   285.7403 </r>
       <r>     3.6562     9.5783   286.6949 </r>
       <r>     3.7558    11.5579   287.8468 </r>
       <r>     3.8555    16.6994   289.5112 </r>
       <r>     3.9551    22.2225   291.7260 </r>
       <r>     4.0548    25.8349   294.3008 </r>
       <r>     4.1545    26.7784   296.9697 </r>
       <r>     4.2541    24.3999   299.4015 </r>
       <r>     4.3538    18.7704   301.2723 </r>
       <r>     4.4535    12.0953   302.4777 </r>
       <r>     4.5531     6.9859   303.1740 </r>
       <r>     4.6528     4.2832   303.6009 </r>
       <r>     4.7525     3.6452   303.9642 </r>
       <r>     4.8521     4.7376   304.4364 </r>
       <r>     4.9518     7.6246   305.1963 </r>
       <r>     5.0515    12.4945   306.4415 </r>
       <r>     5.1511    18.8270   308.3179 </r>
       <r>     5.2508    24.8458   310.7942 </r>
       <r>     5.3505    28.5128   313.6359 </r>
       <r>     5.4501    28.8271   316.5090 </r>
       <r>     5.5498    25.9716   319.0974 </r>
       <r>     5.6495    21.7037   321.2606 </r>
       <r>     5.7491    18.8092   323.1352 </r>
       <r>     5.8488    19.2240   325.0511 </r>
       <r>     5.9484    23.2083   327.3642 </r>
       <r>     6.0481    29.0125   330.2557 </r>
       <r>     6.1478    32.5866   333.5035 </r>
       <r>     6.2474    29.7071   336.4642 </r>
       <r>     6.3471    20.5307   338.5104 </r>
       <r>     6.4468    10.2826   339.5353 </r>
       <r>     6.5464     3.6228   339.8963 </r>
       <r>     6.6461     0.8790   339.9839 </r>
       <r>     6.7458     0.1443   339.9983 </r>
       <r>     6.8454     0.0158   339.9999 </r>
       <r>     6.9451     0.0011   340.0000 </r>
       <r>     7.0448     0.0001   340.0000 </r>
       <r>     7.1444     0.0000   340.0000 </r>
       <r>     7.2441     0.0000   340.0000 </r>
       <r>     7.3438     0.0000   340.0000 </r>
       <r>     7.4434     0.0000   340.0000 </r>
       <r>     7.5431     0.0000   340.0000 </r>
       <r>     7.6428     0.0000   340.0000 </r>
       <r>     7.7424     0.0000   340.0000 </r>
       <r>     7.8421     0.0000   340.0000 </r>
       <r>     7.9418     0.0000   340.0000 </r>
       <r>     8.0414     0.0000   340.0000 </r>
       <r>     8.1411     0.0000   340.0000 </r>
       <r>     8.2407     0.0000   340.0000 </r>
       <r>     8.3404     0.0000   340.0000 </r>
      </set>
     </set>
    </array>
   </total>
  </dos>
 </calculation>
 <structure name="finalpos" >
  <crystal>
   <varray name="basis" >
    <v>      12.57433319       0.00000000       0.00000000 </v>
    <v>       0.00000000      12.57433319       0.00000000 </v>
    <v>       0.00000000       0.00000000      12.57433319 </v>
   </varray>
   <i name="volume">   1988.17629733 </i>
   <varray name="rec_basis" >
    <v>       0.07952708       0.00000000       0.00000000 </v>
    <v>       0.00000000       0.07952708       0.00000000 </v>
    <v>       0.00000000       0.00000000       0.07952708 </v>
   </varray>
  </crystal>
  <varray name="positions" >
   <v>       0.01389963       0.00325319       0.00683646 </v>
   <v>       0.01197303       0.01124161       0.49903591 </v>
   <v>       0.01449667       0.48719923       1.00817131 </v>
   <v>       0.01486007       0.50928505       0.50749876 </v>
   <v>       0.51452548       0.99144112       1.00471446 </v>
   <v>       0.51125250       0.00299875       0.49006123 </v>
   <v>       0.52525689       0.49336565       0.01379160 </v>
   <v>       0.51090464       0.54913812       0.50137247 </v>
   <v>       0.27355330       0.24275608       0.22025497 </v>
   <v>       0.27084223       0.24466935       0.71529271 </v>
   <v>       0.23231705       0.71061519       0.24366300 </v>
   <v>       0.22569657       0.75128841       0.79342706 </v>
   <v>       0.76270621       0.28572879       0.30537758 </v>
   <v>       0.75326120       0.24309318       0.75250749 </v>
   <v>       0.77928975       0.78645748       0.27168325 </v>
   <v>       0.79497029       0.76151151       0.77210481 </v>
   <v>       0.96359922       0.04885633       0.25167169 </v>
   <v>       0.04097989       0.98472296       0.75264091 </v>
   <v>       0.03049517       0.45672763       0.25809687 </v>
   <v>       0.00454856       0.53251480       0.75834335 </v>
   <v>       0.56384320       0.05517827       0.24576951 </v>
   <v>       0.46010315       0.99064613       0.74867757 </v>
   <v>       0.50320434       0.45003474       0.25949865 </v>
   <v>       0.52358582       0.45597025       0.75811207 </v>
   <v>       0.26388263       0.95333129       0.05241409 </v>
   <v>       0.25926175       0.04066569       0.45564707 </v>
   <v>       0.27097613       0.52594496       1.00067465 </v>
   <v>       0.26413905       0.48705765       0.51124608 </v>
   <v>       0.76444028       0.01930891       0.95662012 </v>
   <v>       0.76007318       0.96910908       0.53873155 </v>
   <v>       0.77106735       0.42154138       0.01675882 </v>
   <v>       0.76313419       0.55399212       0.49779990 </v>
   <v>       0.07452411       0.24519652       0.96583966 </v>
   <v>       0.98058364       0.25926532       0.54470279 </v>
   <v>       0.98389263       0.74528755       0.03567678 </v>
   <v>       0.04150825       0.75988243       0.47830508 </v>
   <v>       0.47055574       0.23852706       0.96890318 </v>
   <v>       0.53684904       0.24732691       0.52530765 </v>
   <v>       0.57973589       0.73965294       0.02675205 </v>
   <v>       0.49320098       0.76279663       0.37728598 </v>
   <v>       0.50446753       0.71504503       0.69573088 </v>
  </varray>
 </structure>
</modeling>
