<?xml version="1.0" encoding="ISO-8859-1"?>
<modeling>
 <generator>
  <i name="program" type="string">vasp </i>
  <i name="version" type="string">6.4.3  </i>
  <i name="subversion" type="string">19Mar24 (build Jan  2 2025 14:32:07) complex                          parallel </i>
  <i name="platform" type="string">LinuxGNU </i>
  <i name="date" type="string">2025 11 13 </i>
  <i name="time" type="string">19:18:35 </i>
 </generator>
 <incar>
  <i type="string" name="SYSTEM">Cubic CsPbI3 + I_i(0) defect in relaxed 40 atom supercell</i>
  <i type="string" name="ALGO">Normal</i>
  <i type="int" name="NELM">    60</i>
  <i type="int" name="IBRION">     3</i>
  <i name="EDIFF">      0.00000100</i>
  <i name="EDIFFG">     -0.02000000</i>
  <i type="int" name="NSW">   200</i>
  <i type="int" name="ISIF">     2</i>
  <i type="int" name="ISYM">     0</i>
  <i name="ENCUT">    400.00000000</i>
  <i name="POTIM">      0.00000000</i>
  <i type="string" name="LREAL">Auto	</i>
  <i type="int" name="ISMEAR">     0</i>
  <i name="SIGMA">      0.20000000</i>
  <i type="string" name="GGA">PE</i>
  <i type="int" name="IVDW">    12</i>
  <i name="SPRING">     -5.00000000</i>
 </incar>
 <primitive_cell>
  <structure name="primitive_cell" >
   <crystal>
    <varray name="basis" >
     <v>      12.57433319       0.00000000       0.00000000 </v>
     <v>       0.00000000      12.57433319       0.00000000 </v>
     <v>       0.00000000       0.00000000      12.57433319 </v>
    </varray>
    <i name="volume">   1988.17629733 </i>
    <varray name="rec_basis" >
     <v>       0.07952708       0.00000000       0.00000000 </v>
     <v>       0.00000000       0.07952708       0.00000000 </v>
     <v>       0.00000000       0.00000000       0.07952708 </v>
    </varray>
   </crystal>
   <varray name="positions" >
    <v>       0.01950829       0.01440851       0.00879284 </v>
    <v>       0.00658680       0.01328932       0.50813712 </v>
    <v>       0.01084747       0.50276413       0.00564277 </v>
    <v>       0.00552836       0.50774297       0.50365179 </v>
    <v>       0.51268790       0.00278616       0.00359944 </v>
    <v>       0.50764432       0.00558856       0.49778438 </v>
    <v>       0.51155139       0.50538464       0.01321238 </v>
    <v>       0.51107006       0.53011271       0.48915421 </v>
    <v>       0.26127287       0.24505843       0.22745066 </v>
    <v>       0.25719116       0.22897251       0.70839320 </v>
    <v>       0.22147201       0.73716709       0.26245301 </v>
    <v>       0.26135575       0.74169478       0.78121628 </v>
    <v>       0.76029821       0.27909594       0.26163937 </v>
    <v>       0.72726464       0.25815748       0.75097286 </v>
    <v>       0.76539271       0.80239466       0.27335255 </v>
    <v>       0.81289036       0.79278755       0.79956229 </v>
    <v>       0.97458006       0.05351223       0.25812929 </v>
    <v>       0.06186490       0.97396584       0.75827639 </v>
    <v>       0.02305954       0.45237486       0.25405222 </v>
    <v>       0.01176053       0.55525803       0.75584123 </v>
    <v>       0.55216197       0.05339287       0.24935528 </v>
    <v>       0.46471862       0.98664553       0.75047992 </v>
    <v>       0.49640157       0.44281671       0.25194527 </v>
    <v>       0.45266099       0.46268747       0.76773716 </v>
    <v>       0.26630965       0.96024107       0.05200005 </v>
    <v>       0.25603442       0.02907083       0.45632260 </v>
    <v>       0.26075111       0.55231144       0.02493407 </v>
    <v>       0.25515682       0.49096553       0.49676502 </v>
    <v>       0.76755420       0.04994725       0.97416482 </v>
    <v>       0.75672948       0.98017722       0.55154692 </v>
    <v>       0.76099378       0.45212998       0.99211796 </v>
    <v>       0.75780398       0.53005231       0.44677435 </v>
    <v>       0.07239743       0.25777716       0.96386065 </v>
    <v>       0.97397516       0.26074951       0.55905612 </v>
    <v>       0.97995333       0.75794625       0.05366625 </v>
    <v>       0.01153069       0.76185212       0.47662636 </v>
    <v>       0.45885535       0.24944762       0.97075530 </v>
    <v>       0.52507807       0.25271951       0.52258547 </v>
    <v>       0.56921236       0.75281087       0.02404490 </v>
    <v>       0.48792007       0.75924645       0.39357159 </v>
    <v>       0.57368579       0.67700770       0.68737567 </v>
   </varray>
  </structure>
  <varray name="primitive_index" >
   <v type="int" >        1 </v>
   <v type="int" >        2 </v>
   <v type="int" >        3 </v>
   <v type="int" >        4 </v>
   <v type="int" >        5 </v>
   <v type="int" >        6 </v>
   <v type="int" >        7 </v>
   <v type="int" >        8 </v>
   <v type="int" >        9 </v>
   <v type="int" >       10 </v>
   <v type="int" >       11 </v>
   <v type="int" >       12 </v>
   <v type="int" >       13 </v>
   <v type="int" >       14 </v>
   <v type="int" >       15 </v>
   <v type="int" >       16 </v>
   <v type="int" >       17 </v>
   <v type="int" >       18 </v>
   <v type="int" >       19 </v>
   <v type="int" >       20 </v>
   <v type="int" >       21 </v>
   <v type="int" >       22 </v>
   <v type="int" >       23 </v>
   <v type="int" >       24 </v>
   <v type="int" >       25 </v>
   <v type="int" >       26 </v>
   <v type="int" >       27 </v>
   <v type="int" >       28 </v>
   <v type="int" >       29 </v>
   <v type="int" >       30 </v>
   <v type="int" >       31 </v>
   <v type="int" >       32 </v>
   <v type="int" >       33 </v>
   <v type="int" >       34 </v>
   <v type="int" >       35 </v>
   <v type="int" >       36 </v>
   <v type="int" >       37 </v>
   <v type="int" >       38 </v>
   <v type="int" >       39 </v>
   <v type="int" >       40 </v>
   <v type="int" >       41 </v>
  </varray>
 </primitive_cell>
 <kpoints>
  <generation param="Monkhorst-Pack">
   <v type="int" name="divisions">       3        3        3 </v>
   <v name="usershift">      0.00000000       0.00000000       0.00000000 </v>
   <v name="genvec1">      0.33333333       0.00000000       0.00000000 </v>
   <v name="genvec2">      0.00000000       0.33333333       0.00000000 </v>
   <v name="genvec3">      0.00000000       0.00000000       0.33333333 </v>
   <v name="shift">      0.00000000       0.00000000       0.00000000 </v>
  </generation>
  <varray name="kpointlist" >
   <v>       0.00000000       0.00000000       0.00000000 </v>
   <v>       0.33333333       0.00000000       0.00000000 </v>
   <v>       0.00000000       0.33333333       0.00000000 </v>
   <v>       0.00000000       0.00000000       0.33333333 </v>
   <v>       0.33333333       0.33333333       0.00000000 </v>
   <v>       0.00000000       0.33333333       0.33333333 </v>
   <v>       0.33333333       0.00000000       0.33333333 </v>
   <v>      -0.33333333       0.33333333       0.00000000 </v>
   <v>      -0.33333333       0.00000000       0.33333333 </v>
   <v>       0.00000000      -0.33333333       0.33333333 </v>
   <v>       0.33333333       0.33333333       0.33333333 </v>
   <v>      -0.33333333       0.33333333       0.33333333 </v>
   <v>      -0.33333333      -0.33333333       0.33333333 </v>
   <v>       0.33333333      -0.33333333       0.33333333 </v>
  </varray>
  <varray name="weights" >
   <v>       0.03703704 </v>
   <v>       0.07407407 </v>
   <v>       0.07407407 </v>
   <v>       0.07407407 </v>
   <v>       0.07407407 </v>
   <v>       0.07407407 </v>
   <v>       0.07407407 </v>
   <v>       0.07407407 </v>
   <v>       0.07407407 </v>
   <v>       0.07407407 </v>
   <v>       0.07407407 </v>
   <v>       0.07407407 </v>
   <v>       0.07407407 </v>
   <v>       0.07407407 </v>
  </varray>
 </kpoints>
 <parameters>
  <separator name="general" >
   <i type="string" name="SYSTEM">Cubic CsPbI3 + I_i(0) defect in relaxed</i>
   <i type="logical" name="LCOMPAT"> F  </i>
  </separator>
  <separator name="electronic" >
   <i type="string" name="PREC">normal</i>
   <i name="ENMAX">    400.00000000</i>
   <i name="ENAUG">    407.93300000</i>
   <i name="EDIFF">      0.00000100</i>
   <i type="int" name="IALGO">    38</i>
   <i type="int" name="IWAVPR">    11</i>
   <i type="int" name="NBANDS">   170</i>
   <i type="int" name="NBANDSLOW">    -1</i>
   <i type="int" name="NBANDSHIGH">    -1</i>
   <i name="NELECT">    279.00000000</i>
   <i type="int" name="TURBO">     0</i>
   <i type="int" name="IRESTART">     0</i>
   <i type="int" name="NREBOOT">     0</i>
   <i type="int" name="NMIN">     0</i>
   <i name="EREF">      0.00000000</i>
   <separator name="electronic smearing" >
    <i type="int" name="ISMEAR">     0</i>
    <i name="SIGMA">      0.20000000</i>
    <i name="KSPACING">      0.50000000</i>
    <i type="logical" name="KGAMMA"> T  </i>
    <i type="logical" name="KBLOWUP"> T  </i>
   </separator>
   <separator name="electronic projectors" >
    <i type="logical" name="LREAL"> T  </i>
    <v name="ROPT">     -0.00050000     -0.00050000     -0.00050000</v>
    <i type="int" name="LMAXPAW">  -100</i>
    <i type="int" name="LMAXMIX">     2</i>
    <i type="logical" name="NLSPLINE"> F  </i>
   </separator>
   <separator name="electronic startup" >
    <i type="int" name="ISTART">     0</i>
    <i type="int" name="ICHARG">     2</i>
    <i type="int" name="INIWAV">     1</i>
   </separator>
   <separator name="electronic spin" >
    <i type="int" name="ISPIN">     1</i>
    <i type="logical" name="LNONCOLLINEAR"> F  </i>
    <v name="MAGMOM">      1.00000000      1.00000000      1.00000000      1.00000000      1.00000000      1.00000000      1.00000000      1.00000000      1.00000000      1.00000000      1.00000000      1.00000000      1.00000000      1.00000000      1.00000000      1.00000000      1.00000000      1.00000000      1.00000000      1.00000000
      1.00000000      1.00000000      1.00000000      1.00000000      1.00000000      1.00000000      1.00000000      1.00000000      1.00000000      1.00000000      1.00000000      1.00000000      1.00000000      1.00000000      1.00000000      1.00000000      1.00000000      1.00000000      1.00000000      1.00000000
      1.00000000</v>
    <i name="NUPDOWN">     -1.00000000</i>
    <i type="logical" name="LSORBIT"> F  </i>
    <v name="SAXIS">      0.00000000      0.00000000      1.00000000</v>
    <i type="logical" name="LSPIRAL"> F  </i>
    <v name="QSPIRAL">      0.00000000      0.00000000      0.00000000</v>
    <i type="logical" name="LZEROZ"> F  </i>
   </separator>
   <separator name="electronic exchange-correlation" >
    <i type="logical" name="LASPH"> F  </i>
   </separator>
   <separator name="electronic convergence" >
    <i type="int" name="NELM">    60</i>
    <i type="int" name="NELMDL">    -5</i>
    <i type="int" name="NELMIN">     2</i>
    <i name="ENINI">    400.00000000</i>
    <separator name="electronic convergence detail" >
     <i type="logical" name="LDIAG"> T  </i>
     <i type="logical" name="LSUBROT"> F  </i>
     <i name="WEIMIN">      0.00100000</i>
     <i name="EBREAK">      0.00000000</i>
     <i name="DEPER">      0.30000000</i>
     <i type="int" name="NRMM">     4</i>
     <i name="TIME">      0.40000000</i>
    </separator>
   </separator>
   <separator name="electronic mixer" >
    <i name="AMIX">      0.40000000</i>
    <i name="BMIX">      1.00000000</i>
    <i name="AMIN">      0.10000000</i>
    <i name="AMIX_MAG">      1.60000000</i>
    <i name="BMIX_MAG">      1.00000000</i>
    <separator name="electronic mixer details" >
     <i type="int" name="IMIX">     4</i>
     <i type="logical" name="MIXFIRST"> F  </i>
     <i type="int" name="MAXMIX">   -45</i>
     <i name="WC">    100.00000000</i>
     <i type="int" name="INIMIX">     1</i>
     <i type="int" name="MIXPRE">     1</i>
     <i type="int" name="MREMOVE">     5</i>
    </separator>
   </separator>
   <separator name="electronic dipolcorrection" >
    <i type="logical" name="LDIPOL"> F  </i>
    <i type="logical" name="LMONO"> F  </i>
    <i type="int" name="IDIPOL">     0</i>
    <i name="EPSILON">      1.00000000</i>
    <v name="DIPOL">   -100.00000000   -100.00000000   -100.00000000</v>
    <i name="EFIELD">      0.00000000</i>
    <i type="logical" name="LVACPOTAV"> F  </i>
   </separator>
  </separator>
  <separator name="grids" >
   <i type="int" name="NGX">    64</i>
   <i type="int" name="NGY">    64</i>
   <i type="int" name="NGZ">    64</i>
   <i type="int" name="NGXF">   128</i>
   <i type="int" name="NGYF">   128</i>
   <i type="int" name="NGZF">   128</i>
   <i type="logical" name="ADDGRID"> F  </i>
  </separator>
  <separator name="ionic" >
   <i type="int" name="NSW">   200</i>
   <i type="int" name="IBRION">     3</i>
   <i type="int" name="MDALGO">     0</i>
   <i type="int" name="ISIF">     2</i>
   <i name="PSTRESS">      0.00000000</i>
   <i name="EDIFFG">     -0.02000000</i>
   <i type="int" name="NFREE">     0</i>
   <i name="POTIM">      0.00000000</i>
   <i name="SMASS">     -3.00000000</i>
   <i name="SCALEE">      1.00000000</i>
  </separator>
  <separator name="ionic md" >
   <i name="TEBEG">      0.00010000</i>
   <i name="TEEND">      0.00010000</i>
   <i type="int" name="NBLOCK">     1</i>
   <i type="int" name="KBLOCK">   200</i>
   <i type="int" name="NPACO">   256</i>
   <i name="APACO">     10.00000000</i>
  </separator>
  <separator name="symmetry" >
   <i type="int" name="ISYM">     0</i>
   <i name="SYMPREC">      0.00001000</i>
  </separator>
  <separator name="dos" >
   <i type="int" name="LORBIT">     0</i>
   <v name="RWIGS">     -1.00000000     -1.00000000     -1.00000000</v>
   <i type="int" name="NEDOS">   301</i>
   <i name="EMIN">     10.00000000</i>
   <i name="EMAX">    -10.00000000</i>
   <i name="EFERMI">      0.00000000</i>
  </separator>
  <separator name="writing" >
   <i type="int" name="NWRITE">     2</i>
   <i type="logical" name="LWAVE"> T  </i>
   <i type="logical" name="LDOWNSAMPLE"> F  </i>
   <i type="logical" name="LCHARG"> T  </i>
   <i type="logical" name="LPARD"> F  </i>
   <i type="logical" name="LVTOT"> F  </i>
   <i type="logical" name="LVHAR"> F  </i>
   <i type="logical" name="LELF"> F  </i>
   <i type="logical" name="LOPTICS"> F  </i>
   <v name="STM">      0.00000000      0.00000000      0.00000000      0.00000000      0.00000000      0.00000000      0.00000000</v>
  </separator>
  <separator name="performance" >
   <i type="int" name="NPAR">    10</i>
   <i type="int" name="NSIM">     4</i>
   <i type="int" name="NBLK">    -1</i>
   <i type="logical" name="LPLANE"> T  </i>
   <i type="logical" name="LSCALAPACK"> T  </i>
   <i type="logical" name="LSCAAWARE"> F  </i>
   <i type="logical" name="LSCALU"> F  </i>
   <i type="logical" name="LASYNC"> F  </i>
   <i type="logical" name="LORBITALREAL"> F  </i>
  </separator>
  <separator name="miscellaneous" >
   <i type="int" name="IDIOT">     3</i>
   <i type="int" name="PHON_NSTRUCT">    -1</i>
   <i type="logical" name="LMUSIC"> F  </i>
   <v name="POMASS">    207.20000000    132.90000000    126.90400000</v>
   <v name="DARWINR">      0.00000000      0.00000000      0.00000000</v>
   <v name="DARWINV">      1.00000000      1.00000000      1.00000000</v>
   <i type="logical" name="LCORR"> T  </i>
  </separator>
  <i type="logical" name="GGA_COMPAT"> T  </i>
  <i type="logical" name="LBERRY"> F  </i>
  <i type="int" name="ICORELEVEL">     0</i>
  <i type="logical" name="LDAU"> F  </i>
  <i type="int" name="I_CONSTRAINED_M">     0</i>
  <separator name="electronic exchange-correlation" >
   <i type="string" name="GGA    ">PE</i>
   <i type="string" name="XC_C">1</i>
   <i type="int" name="VOSKOWN">     0</i>
   <i type="logical" name="LHFCALC"> F  </i>
   <i type="string" name="PRECFOCK"></i>
   <i type="logical" name="LSYMGRAD"> F  </i>
   <i type="logical" name="LHFONE"> F  </i>
   <i type="logical" name="LRHFCALC"> F  </i>
   <i type="logical" name="LTHOMAS"> F  </i>
   <i type="logical" name="LMODELHF"> F  </i>
   <i type="logical" name="LFOCKACE"> F  </i>
   <i name="ENCUT4O">     -1.00000000</i>
   <i type="int" name="EXXOEP">     0</i>
   <i type="int" name="FOURORBIT">     0</i>
   <i name="AEXX">      0.00000000</i>
   <i name="HFALPHA">      0.00000000</i>
   <i name="MCALPHA">      0.00000000</i>
   <i name="ALDAX">      1.00000000</i>
   <i name="AGGAX">      1.00000000</i>
   <i name="AMGGAX">      1.00000000</i>
   <i name="ALDAC">      1.00000000</i>
   <i name="AGGAC">      1.00000000</i>
   <i name="AMGGAC">      1.00000000</i>
   <i type="int" name="NKREDX">     1</i>
   <i type="int" name="NKREDY">     1</i>
   <i type="int" name="NKREDZ">     1</i>
   <i type="logical" name="SHIFTRED"> F  </i>
   <i type="logical" name="ODDONLY"> F  </i>
   <i type="logical" name="EVENONLY"> F  </i>
   <i type="int" name="LMAXFOCK">     0</i>
   <i type="int" name="NMAXFOCKAE">     0</i>
   <i type="logical" name="LFOCKAEDFT"> F  </i>
   <i name="HFSCREEN">      0.00000000</i>
   <i name="HFSCREENC">      0.00000000</i>
   <i type="int" name="NBANDSGWLOW">     0</i>
  </separator>
  <separator name="vdW DFT" >
   <i type="logical" name="LUSE_VDW"> F  </i>
   <i type="int" name="IVDW_NL">    -1</i>
   <i type="logical" name="LSPIN_VDW"> F  </i>
   <i name="ZAB_VDW">     -0.84910000</i>
   <i name="GAMMA_VDW">      1.39626340</i>
   <i name="ALPHA_VDW">      0.00000000</i>
   <i name="PARAM1">      0.12340000</i>
   <i name="PARAM2">      1.00000000</i>
   <i name="BPARAM">      6.30000000</i>
   <i name="CPARAM">      0.00930000</i>
  </separator>
  <separator name="model GW" >
   <i type="int" name="MODEL_GW">     0</i>
   <i name="MODEL_EPS0">     29.09526289</i>
   <i name="MODEL_ALPHA">      1.00000000</i>
  </separator>
  <separator name="linear response parameters" >
   <i type="logical" name="LEPSILON"> F  </i>
   <i type="logical" name="LRPA"> F  </i>
   <i type="logical" name="LNABLA"> F  </i>
   <i type="logical" name="LVEL"> F  </i>
   <i name="CSHIFT">      0.10000000</i>
   <i name="OMEGAMAX">     -1.00000000</i>
   <i name="DEG_THRESHOLD">      0.00200000</i>
   <i name="RTIME">     -0.10000000</i>
   <i name="WPLASMAI">      0.00000000</i>
   <v name="DFIELD">      0.00000000      0.00000000      0.00000000</v>
   <v name="WPLASMA">      0.00000000      0.00000000      0.00000000      0.00000000      0.00000000      0.00000000      0.00000000      0.00000000      0.00000000</v>
  </separator>
  <separator name="orbital magnetization" >
   <i type="logical" name="NUCIND"> F  </i>
   <v name="MAGPOS">      0.00000000      0.00000000      0.00000000</v>
   <i type="logical" name="LNICSALL"> T  </i>
   <i type="logical" name="ORBITALMAG"> F  </i>
   <i type="logical" name="LMAGBLOCH"> F  </i>
   <i type="logical" name="LCHIMAG"> F  </i>
   <i type="logical" name="LGAUGE"> T  </i>
   <i type="int" name="MAGATOM">     0</i>
   <v name="MAGDIPOL">      0.00000000      0.00000000      0.00000000</v>
   <v name="AVECCONST">      0.00000000      0.00000000      0.00000000</v>
  </separator>
  <separator name="response functions" >
   <i type="logical" name="LALL_IN_ONE"> F  </i>
   <i type="int" name="IALL_IN_ONE">    -1</i>
   <i type="int" name="NBANDS_WAVE">    -1</i>
   <i type="logical" name="LFINITE_TEMPERATURE"> F  </i>
   <i type="logical" name="LADDER"> F  </i>
   <i type="logical" name="LRPAFORCE"> F  </i>
   <i type="logical" name="LFXC"> F  </i>
   <i type="logical" name="LHARTREE"> T  </i>
   <i type="int" name="IBSE">     0</i>
   <v type="int" name="KPOINT">    -1     0     0     0</v>
   <i type="logical" name="LTCTC"> F  </i>
   <i type="logical" name="LTCTE"> F  </i>
   <i type="logical" name="LTETE"> F  </i>
   <i type="logical" name="LTRIPLET"> F  </i>
   <i type="logical" name="LFXCEPS"> F  </i>
   <i type="logical" name="LFXHEG"> F  </i>
   <i type="int" name="NATURALO">     2</i>
   <i type="logical" name="LHOLEGF"> F  </i>
   <i type="logical" name="L2ORDER"> F  </i>
   <i type="logical" name="LDMP1"> F  </i>
   <i type="logical" name="LMP2LT"> F  </i>
   <i type="logical" name="LSMP2LT"> F  </i>
   <i type="logical" name="LGWLF"> F  </i>
   <i name="ENCUTGW">     -1.60000002</i>
   <i name="ENCUTGWSOFT">     -1.60000002</i>
   <i name="ENCUTLF">     -1.00000000</i>
   <i type="logical" name="ESF_SPLINES"> F  </i>
   <i name="ESF_CONV">      0.01000000</i>
   <i type="int" name="ESF_NINTER">    15</i>
   <i type="int" name="LMAXMP2">    -1</i>
   <i name="SCISSOR">      0.00000000</i>
   <i type="int" name="NOMEGA">     0</i>
   <i type="int" name="NOMEGAR">     0</i>
   <i type="int" name="NBANDSGW">    -1</i>
   <i type="int" name="NBANDSO">    -1</i>
   <i type="int" name="NBANDSV">    -1</i>
   <i type="int" name="NELMGW">     1</i>
   <i type="int" name="NELMHF">     1</i>
   <i type="int" name="DIM">     3</i>
   <i type="int" name="IESPILON">     4</i>
   <i type="int" name="ANTIRES">     0</i>
   <i name="OMEGAMAX">    -30.00000000</i>
   <i name="OMEGAMIN">    -30.00000000</i>
   <i name="OMEGATL">   -200.00000000</i>
   <i type="int" name="OMEGAGRID">     0</i>
   <i name="CSHIFT">     -0.10000000</i>
   <i type="logical" name="LSELFENERGY"> F  </i>
   <i type="logical" name="LSPECTRAL"> F  </i>
   <i type="logical" name="LSPECTRALGW"> F  </i>
   <i type="logical" name="LSINGLES"> F  </i>
   <i type="logical" name="LFERMIGW"> F  </i>
   <i type="logical" name="ODDONLYGW"> F  </i>
   <i type="logical" name="EVENONLYGW"> F  </i>
   <i type="int" name="NKREDLFX">     1</i>
   <i type="int" name="NKREDLFY">     1</i>
   <i type="int" name="NKREDLFZ">     1</i>
   <i type="int" name="MAXMEM">  2800</i>
   <i type="int" name="TELESCOPE">     0</i>
   <i type="int" name="NTAUPAR">    -1</i>
   <i type="int" name="NOMEGAPAR">    -1</i>
   <i name="DAMP_NEWTON">      0.80000001</i>
   <i name="LAMBDA">      1.00000000</i>
  </separator>
  <separator name="External order field" >
   <i name="OFIELD_KAPPA">      0.00000000</i>
   <v name="OFIELD_K">      0.00000000      0.00000000      0.00000000</v>
   <i name="OFIELD_Q6_NEAR">      0.00000000</i>
   <i name="OFIELD_Q6_FAR">      0.00000000</i>
   <i name="OFIELD_A">      0.00000000</i>
  </separator>
  <separator name="optional k-points parameters" >
   <i type="int" name="KPOINTS_OPT_MODE">     1</i>
   <i type="logical" name="LKPOINTS_OPT"> F  </i>
  </separator>
 </parameters>
 <atominfo>
  <atoms>      41 </atoms>
  <types>       3 </types>
  <array name="atoms" >
   <dimension dim="1">ion</dimension>
   <field type="string">element</field>
   <field type="int">atomtype</field>
   <set>
    <rc><c>Pb</c><c>   1</c></rc>
    <rc><c>Pb</c><c>   1</c></rc>
    <rc><c>Pb</c><c>   1</c></rc>
    <rc><c>Pb</c><c>   1</c></rc>
    <rc><c>Pb</c><c>   1</c></rc>
    <rc><c>Pb</c><c>   1</c></rc>
    <rc><c>Pb</c><c>   1</c></rc>
    <rc><c>Pb</c><c>   1</c></rc>
    <rc><c>Cs</c><c>   2</c></rc>
    <rc><c>Cs</c><c>   2</c></rc>
    <rc><c>Cs</c><c>   2</c></rc>
    <rc><c>Cs</c><c>   2</c></rc>
    <rc><c>Cs</c><c>   2</c></rc>
    <rc><c>Cs</c><c>   2</c></rc>
    <rc><c>Cs</c><c>   2</c></rc>
    <rc><c>Cs</c><c>   2</c></rc>
    <rc><c>I </c><c>   3</c></rc>
    <rc><c>I </c><c>   3</c></rc>
    <rc><c>I </c><c>   3</c></rc>
    <rc><c>I </c><c>   3</c></rc>
    <rc><c>I </c><c>   3</c></rc>
    <rc><c>I </c><c>   3</c></rc>
    <rc><c>I </c><c>   3</c></rc>
    <rc><c>I </c><c>   3</c></rc>
    <rc><c>I </c><c>   3</c></rc>
    <rc><c>I </c><c>   3</c></rc>
    <rc><c>I </c><c>   3</c></rc>
    <rc><c>I </c><c>   3</c></rc>
    <rc><c>I </c><c>   3</c></rc>
    <rc><c>I </c><c>   3</c></rc>
    <rc><c>I </c><c>   3</c></rc>
    <rc><c>I </c><c>   3</c></rc>
    <rc><c>I </c><c>   3</c></rc>
    <rc><c>I </c><c>   3</c></rc>
    <rc><c>I </c><c>   3</c></rc>
    <rc><c>I </c><c>   3</c></rc>
    <rc><c>I </c><c>   3</c></rc>
    <rc><c>I </c><c>   3</c></rc>
    <rc><c>I </c><c>   3</c></rc>
    <rc><c>I </c><c>   3</c></rc>
    <rc><c>I </c><c>   3</c></rc>
   </set>
  </array>
  <array name="atomtypes" >
   <dimension dim="1">type</dimension>
   <field type="int">atomspertype</field>
   <field type="string">element</field>
   <field>mass</field>
   <field>valence</field>
   <field type="string">pseudopotential</field>
   <set>
    <rc><c>   8</c><c>Pb</c><c>    207.20000000</c><c>      4.00000000</c><c>  PAW_PBE Pb 08Apr2002                  </c></rc>
    <rc><c>   8</c><c>Cs</c><c>    132.90000000</c><c>      9.00000000</c><c>  PAW_PBE Cs_sv 25Jan2019               </c></rc>
    <rc><c>  25</c><c>I </c><c>    126.90400000</c><c>      7.00000000</c><c>  PAW_PBE I 08Apr2002                   </c></rc>
   </set>
  </array>
 </atominfo>
 <structure name="initialpos" >
  <crystal>
   <varray name="basis" >
    <v>      12.57433319       0.00000000       0.00000000 </v>
    <v>       0.00000000      12.57433319       0.00000000 </v>
    <v>       0.00000000       0.00000000      12.57433319 </v>
   </varray>
   <i name="volume">   1988.17629733 </i>
   <varray name="rec_basis" >
    <v>       0.07952708       0.00000000       0.00000000 </v>
    <v>       0.00000000       0.07952708       0.00000000 </v>
    <v>       0.00000000       0.00000000       0.07952708 </v>
   </varray>
  </crystal>
  <varray name="positions" >
   <v>       0.01950829       0.01440851       0.00879284 </v>
   <v>       0.00658680       0.01328932       0.50813712 </v>
   <v>       0.01084747       0.50276413       0.00564277 </v>
   <v>       0.00552836       0.50774297       0.50365179 </v>
   <v>       0.51268790       0.00278616       0.00359944 </v>
   <v>       0.50764432       0.00558856       0.49778438 </v>
   <v>       0.51155139       0.50538464       0.01321238 </v>
   <v>       0.51107006       0.53011271       0.48915421 </v>
   <v>       0.26127287       0.24505843       0.22745066 </v>
   <v>       0.25719116       0.22897251       0.70839320 </v>
   <v>       0.22147201       0.73716709       0.26245301 </v>
   <v>       0.26135575       0.74169478       0.78121628 </v>
   <v>       0.76029821       0.27909594       0.26163937 </v>
   <v>       0.72726464       0.25815748       0.75097286 </v>
   <v>       0.76539271       0.80239466       0.27335255 </v>
   <v>       0.81289036       0.79278755       0.79956229 </v>
   <v>       0.97458006       0.05351223       0.25812929 </v>
   <v>       0.06186490       0.97396584       0.75827639 </v>
   <v>       0.02305954       0.45237486       0.25405222 </v>
   <v>       0.01176053       0.55525803       0.75584123 </v>
   <v>       0.55216197       0.05339287       0.24935528 </v>
   <v>       0.46471862       0.98664553       0.75047992 </v>
   <v>       0.49640157       0.44281671       0.25194527 </v>
   <v>       0.45266099       0.46268747       0.76773716 </v>
   <v>       0.26630965       0.96024107       0.05200005 </v>
   <v>       0.25603442       0.02907083       0.45632260 </v>
   <v>       0.26075111       0.55231144       0.02493407 </v>
   <v>       0.25515682       0.49096553       0.49676502 </v>
   <v>       0.76755420       0.04994725       0.97416482 </v>
   <v>       0.75672948       0.98017722       0.55154692 </v>
   <v>       0.76099378       0.45212998       0.99211796 </v>
   <v>       0.75780398       0.53005231       0.44677435 </v>
   <v>       0.07239743       0.25777716       0.96386065 </v>
   <v>       0.97397516       0.26074951       0.55905612 </v>
   <v>       0.97995333       0.75794625       0.05366625 </v>
   <v>       0.01153069       0.76185212       0.47662636 </v>
   <v>       0.45885535       0.24944762       0.97075530 </v>
   <v>       0.52507807       0.25271951       0.52258547 </v>
   <v>       0.56921236       0.75281087       0.02404490 </v>
   <v>       0.48792007       0.75924645       0.39357159 </v>
   <v>       0.57368579       0.67700770       0.68737567 </v>
  </varray>
 </structure>
 <calculation>
  <scstep>
   <time name="dav">   18.13   18.16</time>
   <time name="total">   18.20   18.24</time>
   <energy>
    <i name="alphaZ">    325.71046388 </i>
    <i name="ewald"> -10927.70317515 </i>
    <i name="hartreedc">  -1810.67129873 </i>
    <i name="XCdc">  -1769.47608960 </i>
    <i name="pawpsdc">  12287.06968193 </i>
    <i name="pawaedc"> -10010.08791678 </i>
    <i name="eentropy">     -0.33011679 </i>
    <i name="bandstr">    509.63276842 </i>
    <i name="atom">  13117.98845597 </i>
    <i name="e_fr_energy">   1722.13277315 </i>
    <i name="e_wo_entrp">   1722.46288994 </i>
    <i name="e_0_energy">   1722.29783154 </i>
   </energy>
  </scstep>
  <scstep>
   <time name="dav">   22.73   22.73</time>
   <time name="total">   22.73   22.74</time>
   <energy>
    <i name="e_fr_energy">     90.19657223 </i>
    <i name="e_wo_entrp">     90.30599693 </i>
    <i name="e_0_energy">     90.25128458 </i>
   </energy>
  </scstep>
  <scstep>
   <time name="dav">   20.58   20.58</time>
   <time name="total">   20.58   20.58</time>
   <energy>
    <i name="e_fr_energy">   -111.21334371 </i>
    <i name="e_wo_entrp">   -111.09356175 </i>
    <i name="e_0_energy">   -111.15345273 </i>
   </energy>
  </scstep>
  <scstep>
   <time name="dav">   21.53   21.53</time>
   <time name="total">   21.53   21.53</time>
   <energy>
    <i name="e_fr_energy">   -117.01462100 </i>
    <i name="e_wo_entrp">   -116.89522019 </i>
    <i name="e_0_energy">   -116.95492060 </i>
   </energy>
  </scstep>
  <scstep>
   <time name="dav">   22.21   22.21</time>
   <time name="total">   22.81   22.81</time>
   <energy>
    <i name="e_fr_energy">   -117.14774012 </i>
    <i name="e_wo_entrp">   -117.02834149 </i>
    <i name="e_0_energy">   -117.08804081 </i>
   </energy>
  </scstep>
  <scstep>
   <time name="dav">   21.74   21.74</time>
   <time name="total">   22.44   22.44</time>
   <energy>
    <i name="e_fr_energy">   -114.10979823 </i>
    <i name="e_wo_entrp">   -113.99261206 </i>
    <i name="e_0_energy">   -114.05120515 </i>
   </energy>
  </scstep>
  <scstep>
   <time name="dav">   22.37   22.37</time>
   <time name="total">   23.06   23.06</time>
   <energy>
    <i name="e_fr_energy">   -113.84419129 </i>
    <i name="e_wo_entrp">   -113.72870003 </i>
    <i name="e_0_energy">   -113.78644566 </i>
   </energy>
  </scstep>
  <scstep>
   <time name="dav">   21.63   21.64</time>
   <time name="total">   22.33   22.33</time>
   <energy>
    <i name="e_fr_energy">   -113.88049829 </i>
    <i name="e_wo_entrp">   -113.76548250 </i>
    <i name="e_0_energy">   -113.82299040 </i>
   </energy>
  </scstep>
  <scstep>
   <time name="dav">   22.75   22.76</time>
   <time name="total">   23.44   23.44</time>
   <energy>
    <i name="e_fr_energy">   -113.87710610 </i>
    <i name="e_wo_entrp">   -113.76221077 </i>
    <i name="e_0_energy">   -113.81965843 </i>
   </energy>
  </scstep>
  <scstep>
   <time name="dav">   21.02   21.02</time>
   <time name="total">   21.71   21.71</time>
   <energy>
    <i name="e_fr_energy">   -113.83912594 </i>
    <i name="e_wo_entrp">   -113.72456704 </i>
    <i name="e_0_energy">   -113.78184649 </i>
   </energy>
  </scstep>
  <scstep>
   <time name="dav">   21.43   21.44</time>
   <time name="total">   22.12   22.12</time>
   <energy>
    <i name="e_fr_energy">   -113.83902065 </i>
    <i name="e_wo_entrp">   -113.72438482 </i>
    <i name="e_0_energy">   -113.78170273 </i>
   </energy>
  </scstep>
  <scstep>
   <time name="dav">   22.43   22.43</time>
   <time name="total">   23.13   23.13</time>
   <energy>
    <i name="e_fr_energy">   -113.83867756 </i>
    <i name="e_wo_entrp">   -113.72401639 </i>
    <i name="e_0_energy">   -113.78134698 </i>
   </energy>
  </scstep>
  <scstep>
   <time name="dav">   21.40   21.40</time>
   <time name="total">   22.10   22.10</time>
   <energy>
    <i name="e_fr_energy">   -113.83816135 </i>
    <i name="e_wo_entrp">   -113.72345281 </i>
    <i name="e_0_energy">   -113.78080708 </i>
   </energy>
  </scstep>
  <scstep>
   <time name="dav">   20.56   20.56</time>
   <time name="total">   21.26   21.26</time>
   <energy>
    <i name="e_fr_energy">   -113.83852265 </i>
    <i name="e_wo_entrp">   -113.72360786 </i>
    <i name="e_0_energy">   -113.78106526 </i>
   </energy>
  </scstep>
  <scstep>
   <time name="dav">   21.38   21.38</time>
   <time name="total">   22.08   22.08</time>
   <energy>
    <i name="e_fr_energy">   -113.83852368 </i>
    <i name="e_wo_entrp">   -113.72365072 </i>
    <i name="e_0_energy">   -113.78108720 </i>
   </energy>
  </scstep>
  <scstep>
   <time name="dav">   21.98   21.98</time>
   <time name="total">   22.67   22.67</time>
   <energy>
    <i name="e_fr_energy">   -113.83851650 </i>
    <i name="e_wo_entrp">   -113.72365998 </i>
    <i name="e_0_energy">   -113.78108824 </i>
   </energy>
  </scstep>
  <scstep>
   <time name="dav">   20.71   20.72</time>
   <time name="total">   21.42   21.42</time>
   <energy>
    <i name="e_fr_energy">   -113.83852691 </i>
    <i name="e_wo_entrp">   -113.72367169 </i>
    <i name="e_0_energy">   -113.78109930 </i>
   </energy>
  </scstep>
  <scstep>
   <time name="dav">   21.11   21.11</time>
   <time name="total">   21.80   21.81</time>
   <energy>
    <i name="e_fr_energy">   -113.83853059 </i>
    <i name="e_wo_entrp">   -113.72370636 </i>
    <i name="e_0_energy">   -113.78111848 </i>
   </energy>
  </scstep>
  <scstep>
   <time name="dav">   20.82   20.82</time>
   <time name="total">   20.93   20.93</time>
   <energy>
    <i name="alphaZ">    325.71046388 </i>
    <i name="ewald"> -10927.70317515 </i>
    <i name="hartreedc">  -1871.47183530 </i>
    <i name="XCdc">  -1761.08303654 </i>
    <i name="pawpsdc">  15152.12115226 </i>
    <i name="pawaedc"> -12877.38265427 </i>
    <i name="eentropy">     -0.11482153 </i>
    <i name="bandstr">  -1271.90308084 </i>
    <i name="atom">  13117.98845597 </i>
    <i name="e_fr_energy">   -113.83853151 </i>
    <i name="e_wo_entrp">   -113.72370998 </i>
    <i name="e_0_energy">   -113.78112075 </i>
   </energy>
  </scstep>
  <structure>
   <crystal>
    <varray name="basis" >
     <v>      12.57433319       0.00000000       0.00000000 </v>
     <v>       0.00000000      12.57433319       0.00000000 </v>
     <v>       0.00000000       0.00000000      12.57433319 </v>
    </varray>
    <i name="volume">   1988.17629733 </i>
    <varray name="rec_basis" >
     <v>       0.07952708       0.00000000       0.00000000 </v>
     <v>       0.00000000       0.07952708       0.00000000 </v>
     <v>       0.00000000       0.00000000       0.07952708 </v>
    </varray>
   </crystal>
   <varray name="positions" >
    <v>       0.01950829       0.01440851       0.00879284 </v>
    <v>       0.00658680       0.01328932       0.50813712 </v>
    <v>       0.01084747       0.50276413       0.00564277 </v>
    <v>       0.00552836       0.50774297       0.50365179 </v>
    <v>       0.51268790       0.00278616       0.00359944 </v>
    <v>       0.50764432       0.00558856       0.49778438 </v>
    <v>       0.51155139       0.50538464       0.01321238 </v>
    <v>       0.51107006       0.53011271       0.48915421 </v>
    <v>       0.26127287       0.24505843       0.22745066 </v>
    <v>       0.25719116       0.22897251       0.70839320 </v>
    <v>       0.22147201       0.73716709       0.26245301 </v>
    <v>       0.26135575       0.74169478       0.78121628 </v>
    <v>       0.76029821       0.27909594       0.26163937 </v>
    <v>       0.72726464       0.25815748       0.75097286 </v>
    <v>       0.76539271       0.80239466       0.27335255 </v>
    <v>       0.81289036       0.79278755       0.79956229 </v>
    <v>       0.97458006       0.05351223       0.25812929 </v>
    <v>       0.06186490       0.97396584       0.75827639 </v>
    <v>       0.02305954       0.45237486       0.25405222 </v>
    <v>       0.01176053       0.55525803       0.75584123 </v>
    <v>       0.55216197       0.05339287       0.24935528 </v>
    <v>       0.46471862       0.98664553       0.75047992 </v>
    <v>       0.49640157       0.44281671       0.25194527 </v>
    <v>       0.45266099       0.46268747       0.76773716 </v>
    <v>       0.26630965       0.96024107       0.05200005 </v>
    <v>       0.25603442       0.02907083       0.45632260 </v>
    <v>       0.26075111       0.55231144       0.02493407 </v>
    <v>       0.25515682       0.49096553       0.49676502 </v>
    <v>       0.76755420       0.04994725       0.97416482 </v>
    <v>       0.75672948       0.98017722       0.55154692 </v>
    <v>       0.76099378       0.45212998       0.99211796 </v>
    <v>       0.75780398       0.53005231       0.44677435 </v>
    <v>       0.07239743       0.25777716       0.96386065 </v>
    <v>       0.97397516       0.26074951       0.55905612 </v>
    <v>       0.97995333       0.75794625       0.05366625 </v>
    <v>       0.01153069       0.76185212       0.47662636 </v>
    <v>       0.45885535       0.24944762       0.97075530 </v>
    <v>       0.52507807       0.25271951       0.52258547 </v>
    <v>       0.56921236       0.75281087       0.02404490 </v>
    <v>       0.48792007       0.75924645       0.39357159 </v>
    <v>       0.57368579       0.67700770       0.68737567 </v>
   </varray>
  </structure>
  <varray name="forces" >
   <v>       0.00219183       0.00112233      -0.00018313 </v>
   <v>       0.00165910      -0.00163608      -0.00234752 </v>
   <v>       0.00474921      -0.00371979      -0.00385769 </v>
   <v>       0.00039579       0.00098426       0.00532533 </v>
   <v>       0.00043131      -0.00425581      -0.00906483 </v>
   <v>      -0.00398301      -0.01989204      -0.00390561 </v>
   <v>       0.00412966       0.01921246      -0.01443027 </v>
   <v>       0.01025240       0.01757013       0.02785279 </v>
   <v>       0.00247160      -0.00475341       0.00301204 </v>
   <v>      -0.00541326       0.00948016      -0.00178694 </v>
   <v>      -0.00516834      -0.00761336      -0.00658689 </v>
   <v>       0.09852323      -0.00901213      -0.05265856 </v>
   <v>      -0.00122052       0.00142690       0.01166244 </v>
   <v>      -0.01150334       0.00194310      -0.00364849 </v>
   <v>       0.00419665       0.00095943       0.00143757 </v>
   <v>       0.02714871      -0.01221161      -0.00076693 </v>
   <v>      -0.00235996      -0.00035912      -0.00106416 </v>
   <v>      -0.00771909       0.01351086      -0.00107656 </v>
   <v>       0.00679514      -0.00131021       0.00018401 </v>
   <v>      -0.01611331      -0.01026658       0.00223756 </v>
   <v>      -0.00186352      -0.00235902      -0.00601102 </v>
   <v>      -0.03765449       0.00537343       0.01065796 </v>
   <v>      -0.00727874      -0.01294440       0.00508716 </v>
   <v>       0.10444757      -0.07633507       0.03223154 </v>
   <v>       0.00239119       0.00066604      -0.00219547 </v>
   <v>      -0.00301355      -0.00411991       0.00072414 </v>
   <v>       0.00209578      -0.00050552      -0.00948057 </v>
   <v>       0.01018689       0.02113480       0.01872852 </v>
   <v>      -0.01182039      -0.00068235      -0.00205557 </v>
   <v>      -0.00316988      -0.00354561       0.00009180 </v>
   <v>      -0.00042047      -0.01578009       0.00772496 </v>
   <v>       0.00240451      -0.02121579       0.00709357 </v>
   <v>       0.00505079      -0.00540337      -0.00011575 </v>
   <v>       0.00886816      -0.00107182       0.00638737 </v>
   <v>       0.00386894      -0.00659915      -0.00482327 </v>
   <v>      -0.00373831      -0.00354425       0.00453382 </v>
   <v>      -0.00674495       0.01136711       0.00105962 </v>
   <v>      -0.00017307       0.00795250      -0.00194296 </v>
   <v>       0.01184941       0.01009574       0.00081172 </v>
   <v>       0.00669561      -0.00856859      -0.00992782 </v>
   <v>      -0.19144530       0.11490584      -0.00891393 </v>
  </varray>
  <varray name="stress" >
   <v>      -2.50077584       0.44209223       0.14777213 </v>
   <v>       0.44209182      -4.81657480       0.20949317 </v>
   <v>       0.14777275       0.20949327      -2.12081034 </v>
  </varray>
  <energy>
   <i name="e_fr_energy">   -124.16704004 </i>
   <i name="e_wo_entrp">   -124.05221852 </i>
   <i name="e_0_energy">   -124.10962928 </i>
  </energy>
  <time name="totalsc">  457.45  457.97</time>
 </calculation>
 <calculation>
  <scstep>
   <time name="dav">   20.18   20.18</time>
   <time name="total">   20.87   20.88</time>
   <energy>
    <i name="alphaZ">    325.71046388 </i>
    <i name="ewald"> -10927.59571128 </i>
    <i name="hartreedc">  -1871.56133462 </i>
    <i name="XCdc">  -1761.08071389 </i>
    <i name="pawpsdc">  15152.78260836 </i>
    <i name="pawaedc"> -12878.04352097 </i>
    <i name="eentropy">     -0.11465422 </i>
    <i name="bandstr">  -1271.91288869 </i>
    <i name="atom">  13117.98845597 </i>
    <i name="e_fr_energy">   -113.82729544 </i>
    <i name="e_wo_entrp">   -113.71264123 </i>
    <i name="e_0_energy">   -113.76996833 </i>
   </energy>
  </scstep>
  <scstep>
   <time name="dav">   21.17   21.18</time>
   <time name="total">   21.85   21.85</time>
   <energy>
    <i name="e_fr_energy">   -113.83481047 </i>
    <i name="e_wo_entrp">   -113.72006433 </i>
    <i name="e_0_energy">   -113.77743740 </i>
   </energy>
  </scstep>
  <scstep>
   <time name="dav">   22.18   22.18</time>
   <time name="total">   22.87   22.88</time>
   <energy>
    <i name="e_fr_energy">   -113.83473126 </i>
    <i name="e_wo_entrp">   -113.71997171 </i>
    <i name="e_0_energy">   -113.77735148 </i>
   </energy>
  </scstep>
  <scstep>
   <time name="dav">   21.57   21.57</time>
   <time name="total">   22.26   22.26</time>
   <energy>
    <i name="e_fr_energy">   -113.83466153 </i>
    <i name="e_wo_entrp">   -113.71990329 </i>
    <i name="e_0_energy">   -113.77728241 </i>
   </energy>
  </scstep>
  <scstep>
   <time name="dav">   21.86   21.86</time>
   <time name="total">   22.56   22.56</time>
   <energy>
    <i name="e_fr_energy">   -113.83463984 </i>
    <i name="e_wo_entrp">   -113.71987542 </i>
    <i name="e_0_energy">   -113.77725763 </i>
   </energy>
  </scstep>
  <scstep>
   <time name="dav">   21.95   21.95</time>
   <time name="total">   22.62   22.62</time>
   <energy>
    <i name="e_fr_energy">   -113.83464241 </i>
    <i name="e_wo_entrp">   -113.71987005 </i>
    <i name="e_0_energy">   -113.77725623 </i>
   </energy>
  </scstep>
  <scstep>
   <time name="dav">   13.86   13.86</time>
   <time name="total">   13.97   13.97</time>
   <energy>
    <i name="alphaZ">    325.71046388 </i>
    <i name="ewald"> -10927.59571128 </i>
    <i name="hartreedc">  -1871.56005543 </i>
    <i name="XCdc">  -1761.08115782 </i>
    <i name="pawpsdc">  15156.03571615 </i>
    <i name="pawaedc"> -12881.29413018 </i>
    <i name="eentropy">     -0.11477433 </i>
    <i name="bandstr">  -1271.92344952 </i>
    <i name="atom">  13117.98845597 </i>
    <i name="e_fr_energy">   -113.83464255 </i>
    <i name="e_wo_entrp">   -113.71986822 </i>
    <i name="e_0_energy">   -113.77725538 </i>
   </energy>
  </scstep>
  <structure>
   <crystal>
    <varray name="basis" >
     <v>      12.57433319       0.00000000       0.00000000 </v>
     <v>       0.00000000      12.57433319       0.00000000 </v>
     <v>       0.00000000       0.00000000      12.57433319 </v>
    </varray>
    <i name="volume">   1988.17629733 </i>
    <varray name="rec_basis" >
     <v>       0.07952708       0.00000000       0.00000000 </v>
     <v>       0.00000000       0.07952708       0.00000000 </v>
     <v>       0.00000000       0.00000000       0.07952708 </v>
    </varray>
   </crystal>
   <varray name="positions" >
    <v>       0.01956587       0.01446254       0.00886427 </v>
    <v>       0.00659327       0.01332850       0.50822684 </v>
    <v>       0.01077917       0.50290252       0.00550935 </v>
    <v>       0.00545102       0.50775767       0.50353559 </v>
    <v>       0.51259330       0.00285851       0.00354568 </v>
    <v>       0.50762675       0.00557022       0.49793605 </v>
    <v>       0.51141275       0.50560568       0.01305820 </v>
    <v>       0.51144944       0.52966658       0.48920219 </v>
    <v>       0.26114936       0.24500178       0.22747270 </v>
    <v>       0.25703514       0.22896020       0.70835918 </v>
    <v>       0.22165099       0.73708200       0.26259206 </v>
    <v>       0.26254279       0.74168820       0.78022559 </v>
    <v>       0.76026142       0.27887858       0.26117557 </v>
    <v>       0.72704354       0.25825703       0.75109609 </v>
    <v>       0.76518073       0.80272458       0.27340757 </v>
    <v>       0.81314804       0.79327956       0.79997056 </v>
    <v>       0.97475640       0.05358623       0.25821274 </v>
    <v>       0.06191757       0.97395906       0.75835814 </v>
    <v>       0.02312084       0.45227964       0.25390476 </v>
    <v>       0.01173997       0.55560375       0.75573947 </v>
    <v>       0.55187849       0.05331317       0.24941111 </v>
    <v>       0.46467456       0.98614867       0.75059233 </v>
    <v>       0.49614321       0.44269349       0.25184074 </v>
    <v>       0.45205185       0.46265931       0.76801878 </v>
    <v>       0.26630259       0.96024673       0.05204046 </v>
    <v>       0.25603447       0.02918419       0.45654125 </v>
    <v>       0.26058581       0.55258533       0.02487938 </v>
    <v>       0.25512911       0.49095075       0.49652105 </v>
    <v>       0.76744554       0.05024358       0.97456918 </v>
    <v>       0.75673007       0.98022695       0.55162225 </v>
    <v>       0.76083060       0.45220431       0.99195964 </v>
    <v>       0.75785035       0.52978458       0.44553932 </v>
    <v>       0.07230856       0.25782665       0.96380154 </v>
    <v>       0.97385862       0.26080125       0.55920432 </v>
    <v>       0.97990355       0.75799727       0.05391777 </v>
    <v>       0.01145496       0.76188953       0.47656426 </v>
    <v>       0.45870436       0.24960926       0.97065673 </v>
    <v>       0.52520040       0.25296165       0.52273815 </v>
    <v>       0.56910940       0.75297697       0.02420059 </v>
    <v>       0.48784998       0.75915380       0.39456514 </v>
    <v>       0.57483730       0.67537421       0.68742339 </v>
   </varray>
  </structure>
  <varray name="forces" >
   <v>       0.00234675       0.00249098      -0.00060050 </v>
   <v>       0.00226975       0.00017707      -0.00129089 </v>
   <v>       0.00591219      -0.00780387      -0.00041404 </v>
   <v>       0.00071774      -0.00041224       0.00236812 </v>
   <v>       0.00005308       0.00217908      -0.00393339 </v>
   <v>      -0.00310112      -0.01216697      -0.00592562 </v>
   <v>       0.00421702       0.01696550       0.00352399 </v>
   <v>       0.00664429       0.01501008       0.01946552 </v>
   <v>       0.00101789      -0.00566836       0.00328144 </v>
   <v>      -0.00357256       0.00804002      -0.00276649 </v>
   <v>      -0.00520044      -0.00850309      -0.00654159 </v>
   <v>       0.08986803      -0.01495409      -0.04653749 </v>
   <v>      -0.00354003      -0.00168890       0.00557175 </v>
   <v>      -0.00926343       0.00372315      -0.00046805 </v>
   <v>       0.00843976      -0.00055100       0.00286543 </v>
   <v>       0.01745435      -0.00846816      -0.00110780 </v>
   <v>      -0.00361373       0.00132301       0.00277039 </v>
   <v>      -0.00394003       0.01017583      -0.00368983 </v>
   <v>       0.00803787      -0.00140092       0.00388134 </v>
   <v>      -0.00981021      -0.01317949      -0.00248078 </v>
   <v>      -0.00341239       0.00233284      -0.00423536 </v>
   <v>      -0.03304224      -0.00261743       0.00591587 </v>
   <v>      -0.00899479      -0.01168063       0.00566863 </v>
   <v>       0.10045703      -0.07929690       0.02439957 </v>
   <v>       0.00272138       0.00090307      -0.00243754 </v>
   <v>       0.00094056      -0.00602949      -0.00167385 </v>
   <v>       0.00193332       0.00155536      -0.01172292 </v>
   <v>       0.01192912       0.02121647       0.02276679 </v>
   <v>      -0.00663632      -0.00162135      -0.00652743 </v>
   <v>      -0.00425484      -0.00305307       0.00003952 </v>
   <v>      -0.00402616      -0.01679858       0.01015386 </v>
   <v>       0.00144378      -0.02830537      -0.00173442 </v>
   <v>       0.00745593      -0.00240088      -0.00290511 </v>
   <v>       0.00703595      -0.00133979       0.00836515 </v>
   <v>       0.00843381      -0.00387551      -0.00333357 </v>
   <v>      -0.00367275      -0.00526283       0.00244486 </v>
   <v>      -0.00514613       0.00884528       0.00532460 </v>
   <v>       0.00302397      -0.00063148      -0.00483527 </v>
   <v>       0.01117170       0.01122935      -0.00318973 </v>
   <v>       0.00481607      -0.00416727      -0.00965200 </v>
   <v>      -0.19711419       0.13571058      -0.00080317 </v>
  </varray>
  <varray name="stress" >
   <v>      -2.48820005       0.45071308       0.16639283 </v>
   <v>       0.45071330      -4.77263590       0.21079025 </v>
   <v>       0.16639287       0.21078981      -2.09363578 </v>
  </varray>
  <energy>
   <i name="e_fr_energy">   -124.16280717 </i>
   <i name="e_wo_entrp">   -124.04803284 </i>
   <i name="e_0_energy">   -124.10542000 </i>
  </energy>
  <time name="totalsc">  180.50  180.55</time>
 </calculation>
 <calculation>
  <scstep>
   <time name="dav">   19.77   19.77</time>
   <time name="total">   20.44   20.44</time>
   <energy>
    <i name="alphaZ">    325.71046388 </i>
    <i name="ewald"> -10927.34481672 </i>
    <i name="hartreedc">  -1871.79421856 </i>
    <i name="XCdc">  -1761.07901900 </i>
    <i name="pawpsdc">  15156.05808187 </i>
    <i name="pawaedc"> -12881.31645409 </i>
    <i name="eentropy">     -0.11453988 </i>
    <i name="bandstr">  -1271.92070836 </i>
    <i name="atom">  13117.98845597 </i>
    <i name="e_fr_energy">   -113.81275488 </i>
    <i name="e_wo_entrp">   -113.69821499 </i>
    <i name="e_0_energy">   -113.75548494 </i>
   </energy>
  </scstep>
  <scstep>
   <time name="dav">   20.48   20.48</time>
   <time name="total">   21.15   21.15</time>
   <energy>
    <i name="e_fr_energy">   -113.83106471 </i>
    <i name="e_wo_entrp">   -113.71641447 </i>
    <i name="e_0_energy">   -113.77373959 </i>
   </energy>
  </scstep>
  <scstep>
   <time name="dav">   22.19   22.19</time>
   <time name="total">   22.88   22.88</time>
   <energy>
    <i name="e_fr_energy">   -113.83084943 </i>
    <i name="e_wo_entrp">   -113.71618409 </i>
    <i name="e_0_energy">   -113.77351676 </i>
   </energy>
  </scstep>
  <scstep>
   <time name="dav">   21.76   21.76</time>
   <time name="total">   22.46   22.46</time>
   <energy>
    <i name="e_fr_energy">   -113.83068084 </i>
    <i name="e_wo_entrp">   -113.71601794 </i>
    <i name="e_0_energy">   -113.77334939 </i>
   </energy>
  </scstep>
  <scstep>
   <time name="dav">   21.68   21.68</time>
   <time name="total">   22.36   22.37</time>
   <energy>
    <i name="e_fr_energy">   -113.83061834 </i>
    <i name="e_wo_entrp">   -113.71594976 </i>
    <i name="e_0_energy">   -113.77328405 </i>
   </energy>
  </scstep>
  <scstep>
   <time name="dav">   22.19   22.19</time>
   <time name="total">   22.88   22.88</time>
   <energy>
    <i name="e_fr_energy">   -113.83062320 </i>
    <i name="e_wo_entrp">   -113.71594419 </i>
    <i name="e_0_energy">   -113.77328370 </i>
   </energy>
  </scstep>
  <scstep>
   <time name="dav">   17.49   17.49</time>
   <time name="total">   17.60   17.60</time>
   <energy>
    <i name="alphaZ">    325.71046388 </i>
    <i name="ewald"> -10927.34481672 </i>
    <i name="hartreedc">  -1871.78992670 </i>
    <i name="XCdc">  -1761.07929369 </i>
    <i name="pawpsdc">  15156.77700413 </i>
    <i name="pawaedc"> -12882.03492961 </i>
    <i name="eentropy">     -0.11468331 </i>
    <i name="bandstr">  -1271.94289782 </i>
    <i name="atom">  13117.98845597 </i>
    <i name="e_fr_energy">   -113.83062386 </i>
    <i name="e_wo_entrp">   -113.71594055 </i>
    <i name="e_0_energy">   -113.77328220 </i>
   </energy>
  </scstep>
  <structure>
   <crystal>
    <varray name="basis" >
     <v>      12.57433319       0.00000000       0.00000000 </v>
     <v>       0.00000000      12.57433319       0.00000000 </v>
     <v>       0.00000000       0.00000000      12.57433319 </v>
    </varray>
    <i name="volume">   1988.17629733 </i>
    <varray name="rec_basis" >
     <v>       0.07952708       0.00000000       0.00000000 </v>
     <v>       0.00000000       0.07952708       0.00000000 </v>
     <v>       0.00000000       0.00000000       0.07952708 </v>
    </varray>
   </crystal>
   <varray name="positions" >
    <v>       0.01966945       0.01456539       0.00897633 </v>
    <v>       0.00661435       0.01340196       0.50837658 </v>
    <v>       0.01069121       0.50308270       0.00530881 </v>
    <v>       0.00532757       0.50777293       0.50333858 </v>
    <v>       0.51243796       0.00301926       0.00347230 </v>
    <v>       0.50759386       0.00553977       0.49815474 </v>
    <v>       0.51119873       0.50600653       0.01290869 </v>
    <v>       0.51207170       0.52897460       0.48930239 </v>
    <v>       0.26094218       0.24488114       0.22752041 </v>
    <v>       0.25677961       0.22895967       0.70829047 </v>
    <v>       0.22192618       0.73691196       0.26279920 </v>
    <v>       0.26471346       0.74159839       0.77848854 </v>
    <v>       0.76017809       0.27850071       0.26039976 </v>
    <v>       0.72666349       0.25843935       0.75131270 </v>
    <v>       0.76488390       0.80325708       0.27351361 </v>
    <v>       0.81356615       0.79407488       0.80063437 </v>
    <v>       0.97502918       0.05372118       0.25837881 </v>
    <v>       0.06201192       0.97396211       0.75846712 </v>
    <v>       0.02325536       0.45211642       0.25369723 </v>
    <v>       0.01170047       0.55610987       0.75554215 </v>
    <v>       0.55139839       0.05321504       0.24949929 </v>
    <v>       0.46452147       0.98529241       0.75077192 </v>
    <v>       0.49567638       0.44246382       0.25169122 </v>
    <v>       0.45135505       0.46236058       0.76851365 </v>
    <v>       0.26630230       0.96025840       0.05209760 </v>
    <v>       0.25605916       0.02933660       0.45688178 </v>
    <v>       0.26032023       0.55304867       0.02473909 </v>
    <v>       0.25512823       0.49099819       0.49622020 </v>
    <v>       0.76727508       0.05072057       0.97518864 </v>
    <v>       0.75671224       0.98030147       0.55174688 </v>
    <v>       0.76053163       0.45227139       0.99174545 </v>
    <v>       0.75792482       0.52922171       0.44346275 </v>
    <v>       0.07219903       0.25791659       0.96368103 </v>
    <v>       0.97368129       0.26087946       0.55948502 </v>
    <v>       0.97987181       0.75808308       0.05432725 </v>
    <v>       0.01131790       0.76192346       0.47645882 </v>
    <v>       0.45845062       0.24989004       0.97053603 </v>
    <v>       0.52542458       0.25331178       0.52295819 </v>
    <v>       0.56897477       0.75329002       0.02442255 </v>
    <v>       0.48774241       0.75901205       0.39615765 </v>
    <v>       0.57607744       0.67323739       0.68753216 </v>
   </varray>
  </structure>
  <varray name="forces" >
   <v>       0.00688700       0.00083891      -0.00236026 </v>
   <v>       0.00062043      -0.00022633       0.00378584 </v>
   <v>       0.00342978      -0.00980697       0.00154797 </v>
   <v>       0.00263131      -0.00132131       0.00202802 </v>
   <v>      -0.00130797       0.00012912       0.00158305 </v>
   <v>      -0.00020064      -0.00508024      -0.00937389 </v>
   <v>       0.00798446       0.00396855       0.02169041 </v>
   <v>      -0.00584888       0.00494435       0.00272767 </v>
   <v>       0.00278054      -0.00660467       0.00322429 </v>
   <v>      -0.00621891       0.00818859      -0.00033609 </v>
   <v>      -0.00285082      -0.00955862      -0.00239378 </v>
   <v>       0.07330351      -0.02454586      -0.04636030 </v>
   <v>      -0.00790297      -0.00453380       0.00007910 </v>
   <v>      -0.00540318       0.00496129       0.00148186 </v>
   <v>       0.00141127      -0.00554451       0.00280750 </v>
   <v>       0.01150999      -0.01633070      -0.00835957 </v>
   <v>      -0.00457285      -0.00206542       0.00305276 </v>
   <v>       0.00140414       0.00441978      -0.00291353 </v>
   <v>       0.01000263       0.00144531       0.00430493 </v>
   <v>      -0.00591428      -0.01353204      -0.00368712 </v>
   <v>      -0.01157263       0.00235471       0.00561015 </v>
   <v>      -0.02988232       0.00178407      -0.00015017 </v>
   <v>      -0.00052621      -0.00903514      -0.00355764 </v>
   <v>       0.08806570      -0.08612951       0.02039569 </v>
   <v>      -0.00121208       0.00053948      -0.00290183 </v>
   <v>       0.00010756      -0.00542801      -0.00432493 </v>
   <v>       0.00040872       0.00962230      -0.01429461 </v>
   <v>       0.00965277       0.02147873       0.03133931 </v>
   <v>      -0.00507059       0.00015668      -0.01023332 </v>
   <v>      -0.00533059      -0.00496914      -0.00242088 </v>
   <v>       0.00266939      -0.01173027       0.00766046 </v>
   <v>       0.00176827      -0.00525738      -0.00025123 </v>
   <v>       0.00314914      -0.00284578      -0.00293727 </v>
   <v>       0.00630602      -0.00363219       0.00274659 </v>
   <v>       0.01263576      -0.00174594       0.00075046 </v>
   <v>      -0.00051306      -0.00445927       0.00506770 </v>
   <v>      -0.00264119       0.00350855       0.00822074 </v>
   <v>       0.00502418      -0.01001224      -0.00661446 </v>
   <v>       0.00687558       0.01831257       0.00270810 </v>
   <v>       0.00243422       0.00245044      -0.02602262 </v>
   <v>      -0.16409319       0.15529189       0.01668090 </v>
  </varray>
  <varray name="stress" >
   <v>      -2.55565161       0.50306180       0.17705274 </v>
   <v>       0.50306199      -4.75743667       0.21828070 </v>
   <v>       0.17705277       0.21828150      -2.05338861 </v>
  </varray>
  <energy>
   <i name="e_fr_energy">   -124.15825873 </i>
   <i name="e_wo_entrp">   -124.04357542 </i>
   <i name="e_0_energy">   -124.10091707 </i>
  </energy>
  <time name="totalsc">  209.92  209.94</time>
 </calculation>
 <calculation>
  <scstep>
   <time name="dav">   19.69   19.69</time>
   <time name="total">   20.36   20.36</time>
   <energy>
    <i name="alphaZ">    325.71046388 </i>
    <i name="ewald"> -10927.03695281 </i>
    <i name="hartreedc">  -1872.10632186 </i>
    <i name="XCdc">  -1761.08212903 </i>
    <i name="pawpsdc">  15156.76200515 </i>
    <i name="pawaedc"> -12882.01982664 </i>
    <i name="eentropy">     -0.11460035 </i>
    <i name="bandstr">  -1271.91179879 </i>
    <i name="atom">  13117.98845597 </i>
    <i name="e_fr_energy">   -113.81070448 </i>
    <i name="e_wo_entrp">   -113.69610413 </i>
    <i name="e_0_energy">   -113.75340431 </i>
   </energy>
  </scstep>
  <scstep>
   <time name="dav">   20.39   20.39</time>
   <time name="total">   21.08   21.08</time>
   <energy>
    <i name="e_fr_energy">   -113.83213581 </i>
    <i name="e_wo_entrp">   -113.71752627 </i>
    <i name="e_0_energy">   -113.77483104 </i>
   </energy>
  </scstep>
  <scstep>
   <time name="dav">   22.18   22.18</time>
   <time name="total">   22.87   22.87</time>
   <energy>
    <i name="e_fr_energy">   -113.83184401 </i>
    <i name="e_wo_entrp">   -113.71723463 </i>
    <i name="e_0_energy">   -113.77453932 </i>
   </energy>
  </scstep>
  <scstep>
   <time name="dav">   21.98   21.98</time>
   <time name="total">   22.67   22.67</time>
   <energy>
    <i name="e_fr_energy">   -113.83164284 </i>
    <i name="e_wo_entrp">   -113.71703344 </i>
    <i name="e_0_energy">   -113.77433814 </i>
   </energy>
  </scstep>
  <scstep>
   <time name="dav">   21.52   21.52</time>
   <time name="total">   22.21   22.21</time>
   <energy>
    <i name="e_fr_energy">   -113.83156018 </i>
    <i name="e_wo_entrp">   -113.71694933 </i>
    <i name="e_0_energy">   -113.77425476 </i>
   </energy>
  </scstep>
  <scstep>
   <time name="dav">   22.15   22.16</time>
   <time name="total">   22.85   22.85</time>
   <energy>
    <i name="e_fr_energy">   -113.83156218 </i>
    <i name="e_wo_entrp">   -113.71694782 </i>
    <i name="e_0_energy">   -113.77425500 </i>
   </energy>
  </scstep>
  <scstep>
   <time name="dav">   19.16   19.16</time>
   <time name="total">   19.80   19.80</time>
   <energy>
    <i name="e_fr_energy">   -113.83156319 </i>
    <i name="e_wo_entrp">   -113.71694523 </i>
    <i name="e_0_energy">   -113.77425421 </i>
   </energy>
  </scstep>
  <scstep>
   <time name="dav">   13.30   13.30</time>
   <time name="total">   13.40   13.40</time>
   <energy>
    <i name="alphaZ">    325.71046388 </i>
    <i name="ewald"> -10927.03695281 </i>
    <i name="hartreedc">  -1872.11003389 </i>
    <i name="XCdc">  -1761.08178850 </i>
    <i name="pawpsdc">  15155.79254679 </i>
    <i name="pawaedc"> -12881.04831903 </i>
    <i name="eentropy">     -0.11461954 </i>
    <i name="bandstr">  -1271.93131590 </i>
    <i name="atom">  13117.98845597 </i>
    <i name="e_fr_energy">   -113.83156303 </i>
    <i name="e_wo_entrp">   -113.71694349 </i>
    <i name="e_0_energy">   -113.77425326 </i>
   </energy>
  </scstep>
  <structure>
   <crystal>
    <varray name="basis" >
     <v>      12.57433319       0.00000000       0.00000000 </v>
     <v>       0.00000000      12.57433319       0.00000000 </v>
     <v>       0.00000000       0.00000000      12.57433319 </v>
    </varray>
    <i name="volume">   1988.17629733 </i>
    <varray name="rec_basis" >
     <v>       0.07952708       0.00000000       0.00000000 </v>
     <v>       0.00000000       0.07952708       0.00000000 </v>
     <v>       0.00000000       0.00000000       0.07952708 </v>
    </varray>
   </crystal>
   <varray name="positions" >
    <v>       0.01984690       0.01468189       0.00907848 </v>
    <v>       0.00663768       0.01348342       0.50858759 </v>
    <v>       0.01060906       0.50320585       0.00510672 </v>
    <v>       0.00521399       0.50777643       0.50312791 </v>
    <v>       0.51225165       0.00320290       0.00342473 </v>
    <v>       0.50756657       0.00550264       0.49832135 </v>
    <v>       0.51102535       0.50643403       0.01296765 </v>
    <v>       0.51268211       0.52820331       0.48937409 </v>
    <v>       0.26073238       0.24469401       0.22759484 </v>
    <v>       0.25644734       0.22901317       0.70821888 </v>
    <v>       0.22222260       0.73665394       0.26302707 </v>
    <v>       0.26755781       0.74129397       0.77624462 </v>
    <v>       0.76001507       0.27803365       0.25950772 </v>
    <v>       0.72621991       0.25868134       0.75157534 </v>
    <v>       0.76454581       0.80379778       0.27365229 </v>
    <v>       0.81407206       0.79483038       0.80129508 </v>
    <v>       0.97529932       0.05384979       0.25859123 </v>
    <v>       0.06214963       0.97397275       0.75856822 </v>
    <v>       0.02348254       0.45195217       0.25350247 </v>
    <v>       0.01163132       0.55657665       0.75528753 </v>
    <v>       0.55075801       0.05312817       0.24966970 </v>
    <v>       0.46416439       0.98435629       0.75094692 </v>
    <v>       0.49517109       0.44215840       0.25147261 </v>
    <v>       0.45113135       0.46142725       0.76917999 </v>
    <v>       0.26628210       0.96027322       0.05213988 </v>
    <v>       0.25609092       0.02946781       0.45722127 </v>
    <v>       0.26002177       0.55365822       0.02447256 </v>
    <v>       0.25518592       0.49119884       0.49613179 </v>
    <v>       0.76706354       0.05126050       0.97579443 </v>
    <v>       0.75665184       0.98034640       0.55186243 </v>
    <v>       0.76023218       0.45228550       0.99155346 </v>
    <v>       0.75801915       0.52862292       0.44113375 </v>
    <v>       0.07208726       0.25800138       0.96352312 </v>
    <v>       0.97352196       0.26093423       0.55980256 </v>
    <v>       0.97994055       0.75817830       0.05480448 </v>
    <v>       0.01117095       0.76193030       0.47637964 </v>
    <v>       0.45816026       0.25020697       0.97047368 </v>
    <v>       0.52571765       0.25359429       0.52315000 </v>
    <v>       0.56885706       0.75378661       0.02470170 </v>
    <v>       0.48762930       0.75889713       0.39770716 </v>
    <v>       0.57645859       0.67198673       0.68782507 </v>
   </varray>
  </structure>
  <varray name="forces" >
   <v>       0.00551849      -0.00058528      -0.00390450 </v>
   <v>      -0.00671126      -0.00281717       0.00535191 </v>
   <v>      -0.00075125      -0.00269350      -0.00201855 </v>
   <v>       0.00299494      -0.00170920      -0.00159388 </v>
   <v>       0.00167482       0.00710809       0.00037326 </v>
   <v>       0.00050061       0.00157199      -0.00844121 </v>
   <v>       0.01142474       0.00468869       0.03381337 </v>
   <v>      -0.01371868      -0.00472101      -0.00210281 </v>
   <v>      -0.00145097      -0.00910109       0.00392603 </v>
   <v>      -0.00533712       0.00619269      -0.00004768 </v>
   <v>      -0.00681456      -0.00571668      -0.00293088 </v>
   <v>       0.04084096      -0.02503222      -0.04386731 </v>
   <v>      -0.00245850       0.00102188      -0.00058897 </v>
   <v>      -0.00015183      -0.00122741       0.00226006 </v>
   <v>       0.00335970      -0.00877666       0.00003020 </v>
   <v>      -0.00701712      -0.02862339      -0.01528100 </v>
   <v>      -0.00618324      -0.00156439       0.00203715 </v>
   <v>       0.00908124       0.00019455      -0.00127118 </v>
   <v>       0.00721325       0.00313024       0.00542314 </v>
   <v>      -0.00773497      -0.00644699       0.00867488 </v>
   <v>      -0.00741695      -0.00050482       0.00650653 </v>
   <v>      -0.01603490       0.01702622      -0.00778231 </v>
   <v>      -0.01247396      -0.01313050      -0.00139233 </v>
   <v>       0.08881193      -0.08118190       0.00063199 </v>
   <v>      -0.00322014       0.00103425      -0.00257877 </v>
   <v>       0.00378384      -0.00871388      -0.00250434 </v>
   <v>       0.00483829       0.00612996      -0.01912611 </v>
   <v>       0.00219729       0.02517714       0.03604827 </v>
   <v>      -0.00226642       0.00039227      -0.01032175 </v>
   <v>      -0.00368017      -0.00341077      -0.00159059 </v>
   <v>       0.00960996      -0.00889364       0.01346458 </v>
   <v>      -0.00409100       0.00157354       0.00987033 </v>
   <v>       0.00358827      -0.00231488      -0.00256040 </v>
   <v>       0.00955352      -0.00207228      -0.00373923 </v>
   <v>       0.00745830      -0.00010886       0.00675403 </v>
   <v>       0.00188373      -0.00093175       0.00445824 </v>
   <v>       0.00009136      -0.00484354       0.01054674 </v>
   <v>      -0.00134621      -0.02073874      -0.00854404 </v>
   <v>       0.01147210       0.00695037      -0.00184153 </v>
   <v>      -0.00071454       0.01491652      -0.02611842 </v>
   <v>      -0.11632353       0.14875214       0.01997708 </v>
  </varray>
  <varray name="stress" >
   <v>      -2.65666185       0.53274309       0.17580076 </v>
   <v>       0.53274293      -4.73988751       0.22899243 </v>
   <v>       0.17580064       0.22899145      -2.02990038 </v>
  </varray>
  <energy>
   <i name="e_fr_energy">   -124.15872064 </i>
   <i name="e_wo_entrp">   -124.04410111 </i>
   <i name="e_0_energy">   -124.10141088 </i>
  </energy>
  <time name="totalsc">  201.75  202.23</time>
 </calculation>
 <calculation>
  <scstep>
   <time name="dav">   19.66   19.66</time>
   <time name="total">   20.36   20.36</time>
   <energy>
    <i name="alphaZ">    325.71046388 </i>
    <i name="ewald"> -10926.72304357 </i>
    <i name="hartreedc">  -1872.46415313 </i>
    <i name="XCdc">  -1761.09049229 </i>
    <i name="pawpsdc">  15155.78744070 </i>
    <i name="pawaedc"> -12881.04308983 </i>
    <i name="eentropy">     -0.11475838 </i>
    <i name="bandstr">  -1271.86634085 </i>
    <i name="atom">  13117.98845597 </i>
    <i name="e_fr_energy">   -113.81551749 </i>
    <i name="e_wo_entrp">   -113.70075911 </i>
    <i name="e_0_energy">   -113.75813830 </i>
   </energy>
  </scstep>
  <scstep>
   <time name="dav">   20.46   20.46</time>
   <time name="total">   21.16   21.16</time>
   <energy>
    <i name="e_fr_energy">   -113.83665841 </i>
    <i name="e_wo_entrp">   -113.72201234 </i>
    <i name="e_0_energy">   -113.77933537 </i>
   </energy>
  </scstep>
  <scstep>
   <time name="dav">   22.62   22.62</time>
   <time name="total">   23.32   23.32</time>
   <energy>
    <i name="e_fr_energy">   -113.83635910 </i>
    <i name="e_wo_entrp">   -113.72174095 </i>
    <i name="e_0_energy">   -113.77905002 </i>
   </energy>
  </scstep>
  <scstep>
   <time name="dav">   22.10   22.10</time>
   <time name="total">   22.80   22.80</time>
   <energy>
    <i name="e_fr_energy">   -113.83616883 </i>
    <i name="e_wo_entrp">   -113.72155290 </i>
    <i name="e_0_energy">   -113.77886087 </i>
   </energy>
  </scstep>
  <scstep>
   <time name="dav">   21.54   21.54</time>
   <time name="total">   22.24   22.24</time>
   <energy>
    <i name="e_fr_energy">   -113.83606219 </i>
    <i name="e_wo_entrp">   -113.72145369 </i>
    <i name="e_0_energy">   -113.77875794 </i>
   </energy>
  </scstep>
  <scstep>
   <time name="dav">   22.16   22.16</time>
   <time name="total">   22.84   22.84</time>
   <energy>
    <i name="e_fr_energy">   -113.83606584 </i>
    <i name="e_wo_entrp">   -113.72146341 </i>
    <i name="e_0_energy">   -113.77876462 </i>
   </energy>
  </scstep>
  <scstep>
   <time name="dav">   20.03   20.03</time>
   <time name="total">   20.14   20.15</time>
   <energy>
    <i name="alphaZ">    325.71046388 </i>
    <i name="ewald"> -10926.72304357 </i>
    <i name="hartreedc">  -1872.47882651 </i>
    <i name="XCdc">  -1761.08884134 </i>
    <i name="pawpsdc">  15153.35467750 </i>
    <i name="pawaedc"> -12878.60715902 </i>
    <i name="eentropy">     -0.11460213 </i>
    <i name="bandstr">  -1271.87719092 </i>
    <i name="atom">  13117.98845597 </i>
    <i name="e_fr_energy">   -113.83606613 </i>
    <i name="e_wo_entrp">   -113.72146400 </i>
    <i name="e_0_energy">   -113.77876506 </i>
   </energy>
  </scstep>
  <structure>
   <crystal>
    <varray name="basis" >
     <v>      12.57433319       0.00000000       0.00000000 </v>
     <v>       0.00000000      12.57433319       0.00000000 </v>
     <v>       0.00000000       0.00000000      12.57433319 </v>
    </varray>
    <i name="volume">   1988.17629733 </i>
    <varray name="rec_basis" >
     <v>       0.07952708       0.00000000       0.00000000 </v>
     <v>       0.00000000       0.07952708       0.00000000 </v>
     <v>       0.00000000       0.00000000       0.07952708 </v>
    </varray>
   </crystal>
   <varray name="positions" >
    <v>       0.02006436       0.01478485       0.00913800 </v>
    <v>       0.00659271       0.01353337       0.50883879 </v>
    <v>       0.01051916       0.50330420       0.00489642 </v>
    <v>       0.00513441       0.50776350       0.50291017 </v>
    <v>       0.51209263       0.00344648       0.00338587 </v>
    <v>       0.50754786       0.00549413       0.49840333 </v>
    <v>       0.51096681       0.50687118       0.01334615 </v>
    <v>       0.51312295       0.52741650       0.48940764 </v>
    <v>       0.26051730       0.24443394       0.22769997 </v>
    <v>       0.25608651       0.22911462       0.70815231 </v>
    <v>       0.22244078       0.73636399       0.26321910 </v>
    <v>       0.27055560       0.74077988       0.77374510 </v>
    <v>       0.75984207       0.27760399       0.25865338 </v>
    <v>       0.72580794       0.25889417       0.75184613 </v>
    <v>       0.76425433       0.80422576       0.27378105 </v>
    <v>       0.81446298       0.79527790       0.80177443 </v>
    <v>       0.97549829       0.05395662       0.25880995 </v>
    <v>       0.06237191       0.97397582       0.75865424 </v>
    <v>       0.02375867       0.45182765       0.25336833 </v>
    <v>       0.01149936       0.55696813       0.75513363 </v>
    <v>       0.55008734       0.05303982       0.24989474 </v>
    <v>       0.46370409       0.98363701       0.75103165 </v>
    <v>       0.49457622       0.44175286       0.25125090 </v>
    <v>       0.45168742       0.45983712       0.76979049 </v>
    <v>       0.26623068       0.96029658       0.05215728 </v>
    <v>       0.25615844       0.02951190       0.45751966 </v>
    <v>       0.25978564       0.55428962       0.02404666 </v>
    <v>       0.25525058       0.49161210       0.49637383 </v>
    <v>       0.76684933       0.05177624       0.97627359 </v>
    <v>       0.75656351       0.98035997       0.55195733 </v>
    <v>       0.76004323       0.45222793       0.99149433 </v>
    <v>       0.75806640       0.52808969       0.43902728 </v>
    <v>       0.07201151       0.25806281       0.96335132 </v>
    <v>       0.97345742       0.26096808       0.56006078 </v>
    <v>       0.98006879       0.75827142       0.05532382 </v>
    <v>       0.01105248       0.76193218       0.47634407 </v>
    <v>       0.45789128       0.25045177       0.97051243 </v>
    <v>       0.52597789       0.25366150       0.52325288 </v>
    <v>       0.56884805       0.75430935       0.02494721 </v>
    <v>       0.48751105       0.75893655       0.39893430 </v>
    <v>       0.57587336       0.67211184       0.68829142 </v>
   </varray>
  </structure>
  <varray name="forces" >
   <v>       0.00121288      -0.00611805      -0.00314984 </v>
   <v>      -0.00759439      -0.00129255       0.00389402 </v>
   <v>       0.00137595       0.00563743      -0.00700824 </v>
   <v>       0.00291513       0.00207042       0.00558877 </v>
   <v>       0.00311998      -0.00293176      -0.00428317 </v>
   <v>      -0.00074337      -0.00018485      -0.00300510 </v>
   <v>       0.00386475       0.01089742       0.01220184 </v>
   <v>      -0.00874958       0.00677639       0.00626186 </v>
   <v>      -0.00377104      -0.00835254       0.00254026 </v>
   <v>      -0.00251978       0.00527360       0.00095872 </v>
   <v>      -0.01209052      -0.00227975      -0.00324398 </v>
   <v>       0.00640387      -0.04015850      -0.03018380 </v>
   <v>       0.00341435      -0.00587558      -0.00100859 </v>
   <v>       0.00573275      -0.00534180      -0.00104188 </v>
   <v>      -0.00146863      -0.00809397       0.00471146 </v>
   <v>      -0.01641987      -0.03050164      -0.01787615 </v>
   <v>      -0.00371225       0.00016093      -0.00501709 </v>
   <v>       0.02349563      -0.01291878       0.00000431 </v>
   <v>       0.00758274       0.00052613       0.00809864 </v>
   <v>      -0.00822262      -0.00895793       0.00741794 </v>
   <v>       0.00170064      -0.00140238      -0.00123144 </v>
   <v>      -0.00450277       0.02643827      -0.00359530 </v>
   <v>      -0.01368800      -0.00916853       0.02144991 </v>
   <v>       0.10487492      -0.05928844      -0.01349911 </v>
   <v>      -0.00224029       0.00386307      -0.00055917 </v>
   <v>      -0.00248359      -0.00482437      -0.00485360 </v>
   <v>       0.01995125       0.00486081      -0.02336693 </v>
   <v>       0.01063788       0.02086066       0.03822920 </v>
   <v>       0.00289979       0.00072757      -0.00833806 </v>
   <v>      -0.00366114      -0.00028768      -0.00037035 </v>
   <v>       0.00575783      -0.00163301       0.00962623 </v>
   <v>      -0.00592326       0.00446174       0.02660747 </v>
   <v>       0.00265435      -0.00101424      -0.00200880 </v>
   <v>       0.00307570       0.00250959      -0.00348440 </v>
   <v>      -0.00160096      -0.00223082       0.00092800 </v>
   <v>       0.00209134       0.00086462       0.00297463 </v>
   <v>       0.00331532      -0.00759361       0.01008745 </v>
   <v>      -0.00329717      -0.01823459      -0.00916800 </v>
   <v>       0.01265906       0.00233251      -0.00031435 </v>
   <v>      -0.00371982       0.01051956      -0.03822350 </v>
   <v>      -0.12232706       0.12990464       0.02325015 </v>
  </varray>
  <varray name="stress" >
   <v>      -2.78906002       0.54501643       0.18815685 </v>
   <v>       0.54501521      -4.78222730       0.20504304 </v>
   <v>       0.18815564       0.20504297      -2.08451608 </v>
  </varray>
  <energy>
   <i name="e_fr_energy">   -124.16289743 </i>
   <i name="e_wo_entrp">   -124.04829531 </i>
   <i name="e_0_energy">   -124.10559637 </i>
  </energy>
  <time name="totalsc">  192.83  193.02</time>
 </calculation>
 <calculation>
  <scstep>
   <time name="dav">   19.69   19.69</time>
   <time name="total">   20.36   20.36</time>
   <energy>
    <i name="alphaZ">    325.71046388 </i>
    <i name="ewald"> -10926.35624411 </i>
    <i name="hartreedc">  -1872.90429910 </i>
    <i name="XCdc">  -1761.10127014 </i>
    <i name="pawpsdc">  15153.17993737 </i>
    <i name="pawaedc"> -12878.43217849 </i>
    <i name="eentropy">     -0.11472707 </i>
    <i name="bandstr">  -1271.78604241 </i>
    <i name="atom">  13117.98845597 </i>
    <i name="e_fr_energy">   -113.81590409 </i>
    <i name="e_wo_entrp">   -113.70117702 </i>
    <i name="e_0_energy">   -113.75854055 </i>
   </energy>
  </scstep>
  <scstep>
   <time name="dav">   20.57   20.58</time>
   <time name="total">   21.24   21.24</time>
   <energy>
    <i name="e_fr_energy">   -113.84137264 </i>
    <i name="e_wo_entrp">   -113.72676474 </i>
    <i name="e_0_energy">   -113.78406869 </i>
   </energy>
  </scstep>
  <scstep>
   <time name="dav">   22.63   22.63</time>
   <time name="total">   23.32   23.32</time>
   <energy>
    <i name="e_fr_energy">   -113.84102568 </i>
    <i name="e_wo_entrp">   -113.72645830 </i>
    <i name="e_0_energy">   -113.78374199 </i>
   </energy>
  </scstep>
  <scstep>
   <time name="dav">   22.17   22.17</time>
   <time name="total">   22.86   22.86</time>
   <energy>
    <i name="e_fr_energy">   -113.84078722 </i>
    <i name="e_wo_entrp">   -113.72622835 </i>
    <i name="e_0_energy">   -113.78350778 </i>
   </energy>
  </scstep>
  <scstep>
   <time name="dav">   21.52   21.53</time>
   <time name="total">   22.19   22.19</time>
   <energy>
    <i name="e_fr_energy">   -113.84066874 </i>
    <i name="e_wo_entrp">   -113.72612411 </i>
    <i name="e_0_energy">   -113.78339643 </i>
   </energy>
  </scstep>
  <scstep>
   <time name="dav">   22.08   22.08</time>
   <time name="total">   22.74   22.74</time>
   <energy>
    <i name="e_fr_energy">   -113.84067484 </i>
    <i name="e_wo_entrp">   -113.72613875 </i>
    <i name="e_0_energy">   -113.78340680 </i>
   </energy>
  </scstep>
  <scstep>
   <time name="dav">   19.82   19.82</time>
   <time name="total">   19.92   19.93</time>
   <energy>
    <i name="alphaZ">    325.71046388 </i>
    <i name="ewald"> -10926.35624411 </i>
    <i name="hartreedc">  -1872.92713392 </i>
    <i name="XCdc">  -1761.09821468 </i>
    <i name="pawpsdc">  15149.81192528 </i>
    <i name="pawaedc"> -12875.05954784 </i>
    <i name="eentropy">     -0.11453618 </i>
    <i name="bandstr">  -1271.79584321 </i>
    <i name="atom">  13117.98845597 </i>
    <i name="e_fr_energy">   -113.84067480 </i>
    <i name="e_wo_entrp">   -113.72613862 </i>
    <i name="e_0_energy">   -113.78340671 </i>
   </energy>
  </scstep>
  <structure>
   <crystal>
    <varray name="basis" >
     <v>      12.57433319       0.00000000       0.00000000 </v>
     <v>       0.00000000      12.57433319       0.00000000 </v>
     <v>       0.00000000       0.00000000      12.57433319 </v>
    </varray>
    <i name="volume">   1988.17629733 </i>
    <varray name="rec_basis" >
[...]
       <r>    0.4639    1.0000 </r>
       <r>    0.4760    1.0000 </r>
       <r>    0.4844    1.0000 </r>
       <r>    0.5124    1.0000 </r>
       <r>    0.5361    1.0000 </r>
       <r>    0.5739    1.0000 </r>
       <r>    0.6529    1.0000 </r>
       <r>    0.7126    1.0000 </r>
       <r>    0.8312    0.9997 </r>
       <r>    1.3181    0.4967 </r>
       <r>    3.7616    0.0000 </r>
       <r>    3.8275    0.0000 </r>
       <r>    3.9003    0.0000 </r>
       <r>    3.9414    0.0000 </r>
       <r>    4.0036    0.0000 </r>
       <r>    4.0383    0.0000 </r>
       <r>    4.0734    0.0000 </r>
       <r>    4.1399    0.0000 </r>
       <r>    4.1590    0.0000 </r>
       <r>    4.2157    0.0000 </r>
       <r>    4.2301    0.0000 </r>
       <r>    4.4127    0.0000 </r>
       <r>    4.9531    0.0000 </r>
       <r>    5.0353    0.0000 </r>
       <r>    5.1333    0.0000 </r>
       <r>    5.1626    0.0000 </r>
       <r>    5.2016    0.0000 </r>
       <r>    5.2357    0.0000 </r>
       <r>    5.2990    0.0000 </r>
       <r>    5.3272    0.0000 </r>
       <r>    5.3874    0.0000 </r>
       <r>    5.4111    0.0000 </r>
       <r>    5.4592    0.0000 </r>
       <r>    5.5296    0.0000 </r>
       <r>    5.8990    0.0000 </r>
       <r>    6.0596    0.0000 </r>
       <r>    6.1496    0.0000 </r>
       <r>    6.2010    0.0000 </r>
       <r>    6.2439    0.0000 </r>
       <r>    6.2547    0.0000 </r>
      </set>
     </set>
    </set>
   </array>
  </eigenvalues>
  <separator name="orbital magnetization" >
   <v name="MAGDIPOLOUT">      0.00000000      0.00000000      0.00000000</v>
  </separator>
  <dos>
   <i name="efermi">      1.31689912 </i>
   <total>
    <array>
     <dimension dim="1">gridpoints</dimension>
     <dimension dim="2">spin</dimension>
     <field>energy</field>
     <field>total</field>
     <field>integrated</field>
     <set>
      <set comment="spin 1">
       <r>   -21.6362     0.0000     0.0000 </r>
       <r>   -21.5362     0.0000     0.0000 </r>
       <r>   -21.4362     0.0000     0.0000 </r>
       <r>   -21.3362     0.0000     0.0000 </r>
       <r>   -21.2361     0.0000     0.0000 </r>
       <r>   -21.1361     0.0000     0.0000 </r>
       <r>   -21.0361     0.0000     0.0000 </r>
       <r>   -20.9360     0.0000     0.0000 </r>
       <r>   -20.8360     0.0000     0.0000 </r>
       <r>   -20.7360     0.0000     0.0000 </r>
       <r>   -20.6360     0.0000     0.0000 </r>
       <r>   -20.5359     0.0000     0.0000 </r>
       <r>   -20.4359     0.0000     0.0000 </r>
       <r>   -20.3359     0.0000     0.0000 </r>
       <r>   -20.2358     0.0004     0.0000 </r>
       <r>   -20.1358     0.0073     0.0008 </r>
       <r>   -20.0358     0.0842     0.0092 </r>
       <r>   -19.9358     0.6153     0.0707 </r>
       <r>   -19.8357     2.9068     0.3615 </r>
       <r>   -19.7357     9.2062     1.2824 </r>
       <r>   -19.6357    20.4474     3.3277 </r>
       <r>   -19.5356    32.9055     6.6192 </r>
       <r>   -19.4356    38.2509    10.4453 </r>
       <r>   -19.3356    31.0431    13.5505 </r>
       <r>   -19.2356    16.9070    15.2417 </r>
       <r>   -19.1355     6.0016    15.8420 </r>
       <r>   -19.0355     1.3640    15.9785 </r>
       <r>   -18.9355     0.1964    15.9981 </r>
       <r>   -18.8354     0.0178    15.9999 </r>
       <r>   -18.7354     0.0010    16.0000 </r>
       <r>   -18.6354     0.0000    16.0000 </r>
       <r>   -18.5354     0.0000    16.0000 </r>
       <r>   -18.4353     0.0000    16.0000 </r>
       <r>   -18.3353     0.0000    16.0000 </r>
       <r>   -18.2353     0.0000    16.0000 </r>
       <r>   -18.1352     0.0000    16.0000 </r>
       <r>   -18.0352     0.0000    16.0000 </r>
       <r>   -17.9352     0.0000    16.0000 </r>
       <r>   -17.8352     0.0000    16.0000 </r>
       <r>   -17.7351     0.0000    16.0000 </r>
       <r>   -17.6351     0.0000    16.0000 </r>
       <r>   -17.5351     0.0000    16.0000 </r>
       <r>   -17.4351     0.0000    16.0000 </r>
       <r>   -17.3350     0.0000    16.0000 </r>
       <r>   -17.2350     0.0000    16.0000 </r>
       <r>   -17.1350     0.0000    16.0000 </r>
       <r>   -17.0349     0.0000    16.0000 </r>
       <r>   -16.9349     0.0000    16.0000 </r>
       <r>   -16.8349     0.0000    16.0000 </r>
       <r>   -16.7349     0.0000    16.0000 </r>
       <r>   -16.6348     0.0000    16.0000 </r>
       <r>   -16.5348     0.0000    16.0000 </r>
       <r>   -16.4348     0.0000    16.0000 </r>
       <r>   -16.3347     0.0000    16.0000 </r>
       <r>   -16.2347     0.0000    16.0000 </r>
       <r>   -16.1347     0.0000    16.0000 </r>
       <r>   -16.0347     0.0000    16.0000 </r>
       <r>   -15.9346     0.0000    16.0000 </r>
       <r>   -15.8346     0.0000    16.0000 </r>
       <r>   -15.7346     0.0000    16.0000 </r>
       <r>   -15.6345     0.0000    16.0000 </r>
       <r>   -15.5345     0.0000    16.0000 </r>
       <r>   -15.4345     0.0000    16.0000 </r>
       <r>   -15.3345     0.0000    16.0000 </r>
       <r>   -15.2344     0.0000    16.0000 </r>
       <r>   -15.1344     0.0000    16.0000 </r>
       <r>   -15.0344     0.0000    16.0000 </r>
       <r>   -14.9343     0.0000    16.0000 </r>
       <r>   -14.8343     0.0000    16.0000 </r>
       <r>   -14.7343     0.0000    16.0000 </r>
       <r>   -14.6343     0.0000    16.0000 </r>
       <r>   -14.5342     0.0000    16.0000 </r>
       <r>   -14.4342     0.0000    16.0000 </r>
       <r>   -14.3342     0.0000    16.0000 </r>
       <r>   -14.2341     0.0000    16.0000 </r>
       <r>   -14.1341     0.0000    16.0000 </r>
       <r>   -14.0341     0.0000    16.0000 </r>
       <r>   -13.9341     0.0000    16.0000 </r>
       <r>   -13.8340     0.0000    16.0000 </r>
       <r>   -13.7340     0.0000    16.0000 </r>
       <r>   -13.6340     0.0000    16.0000 </r>
       <r>   -13.5339     0.0000    16.0000 </r>
       <r>   -13.4339     0.0000    16.0000 </r>
       <r>   -13.3339     0.0000    16.0000 </r>
       <r>   -13.2339     0.0000    16.0000 </r>
       <r>   -13.1338     0.0000    16.0000 </r>
       <r>   -13.0338     0.0000    16.0000 </r>
       <r>   -12.9338     0.0000    16.0000 </r>
       <r>   -12.8338     0.0000    16.0000 </r>
       <r>   -12.7337     0.0000    16.0000 </r>
       <r>   -12.6337     0.0000    16.0000 </r>
       <r>   -12.5337     0.0000    16.0000 </r>
       <r>   -12.4336     0.0000    16.0000 </r>
       <r>   -12.3336     0.0000    16.0000 </r>
       <r>   -12.2336     0.0000    16.0000 </r>
       <r>   -12.1336     0.0000    16.0000 </r>
       <r>   -12.0335     0.0000    16.0000 </r>
       <r>   -11.9335     0.0000    16.0000 </r>
       <r>   -11.8335     0.0000    16.0000 </r>
       <r>   -11.7334     0.0000    16.0000 </r>
       <r>   -11.6334     0.0000    16.0000 </r>
       <r>   -11.5334     0.0005    16.0001 </r>
       <r>   -11.4334     0.0081    16.0009 </r>
       <r>   -11.3333     0.0783    16.0087 </r>
       <r>   -11.2333     0.4660    16.0553 </r>
       <r>   -11.1333     1.7153    16.2269 </r>
       <r>   -11.0332     3.9355    16.6205 </r>
       <r>   -10.9332     5.8330    17.2040 </r>
       <r>   -10.8332     6.6192    17.8661 </r>
       <r>   -10.7332     8.9771    18.7641 </r>
       <r>   -10.6331    16.4671    20.4113 </r>
       <r>   -10.5331    28.6716    23.2792 </r>
       <r>   -10.4331    42.7974    27.5602 </r>
       <r>   -10.3330    58.8956    33.4514 </r>
       <r>   -10.2330    76.7572    41.1293 </r>
       <r>   -10.1330    86.9637    49.8281 </r>
       <r>   -10.0330    77.3072    57.5610 </r>
       <r>    -9.9329    50.7398    62.6364 </r>
       <r>    -9.8329    23.8041    65.0175 </r>
       <r>    -9.7329     7.7948    65.7972 </r>
       <r>    -9.6328     1.7412    65.9714 </r>
       <r>    -9.5328     0.2595    65.9973 </r>
       <r>    -9.4328     0.0253    65.9998 </r>
       <r>    -9.3328     0.0016    66.0000 </r>
       <r>    -9.2327     0.0001    66.0000 </r>
       <r>    -9.1327     0.0000    66.0000 </r>
       <r>    -9.0327     0.0000    66.0000 </r>
       <r>    -8.9327     0.0000    66.0000 </r>
       <r>    -8.8326     0.0000    66.0000 </r>
       <r>    -8.7326     0.0000    66.0000 </r>
       <r>    -8.6326     0.0000    66.0000 </r>
       <r>    -8.5325     0.0000    66.0000 </r>
       <r>    -8.4325     0.0000    66.0000 </r>
       <r>    -8.3325     0.0000    66.0000 </r>
       <r>    -8.2325     0.0000    66.0000 </r>
       <r>    -8.1324     0.0000    66.0000 </r>
       <r>    -8.0324     0.0000    66.0000 </r>
       <r>    -7.9324     0.0000    66.0000 </r>
       <r>    -7.8323     0.0000    66.0000 </r>
       <r>    -7.7323     0.0000    66.0000 </r>
       <r>    -7.6323     0.0000    66.0000 </r>
       <r>    -7.5323     0.0000    66.0000 </r>
       <r>    -7.4322     0.0002    66.0000 </r>
       <r>    -7.3322     0.0023    66.0002 </r>
       <r>    -7.2322     0.0204    66.0023 </r>
       <r>    -7.1321     0.1254    66.0148 </r>
       <r>    -7.0321     0.5408    66.0689 </r>
       <r>    -6.9321     1.7045    66.2394 </r>
       <r>    -6.8321     4.2986    66.6694 </r>
       <r>    -6.7320    10.0903    67.6787 </r>
       <r>    -6.6320    23.9686    70.0763 </r>
       <r>    -6.5320    52.4123    75.3190 </r>
       <r>    -6.4319    93.2605    84.6476 </r>
       <r>    -6.3319   126.8704    97.3383 </r>
       <r>    -6.2319   127.9549   110.1374 </r>
       <r>    -6.1319    94.6466   119.6047 </r>
       <r>    -6.0318    53.2443   124.9306 </r>
       <r>    -5.9318    25.7574   127.5071 </r>
       <r>    -5.8318    12.7323   128.7807 </r>
       <r>    -5.7317     6.7208   129.4530 </r>
       <r>    -5.6317     3.3868   129.7917 </r>
       <r>    -5.5317     1.4480   129.9366 </r>
       <r>    -5.4317     0.4868   129.9853 </r>
       <r>    -5.3316     0.1223   129.9975 </r>
       <r>    -5.2316     0.0221   129.9997 </r>
       <r>    -5.1316     0.0028   130.0000 </r>
       <r>    -5.0316     0.0002   130.0000 </r>
       <r>    -4.9315     0.0000   130.0000 </r>
       <r>    -4.8315     0.0000   130.0000 </r>
       <r>    -4.7315     0.0000   130.0000 </r>
       <r>    -4.6314     0.0000   130.0000 </r>
       <r>    -4.5314     0.0000   130.0000 </r>
       <r>    -4.4314     0.0000   130.0000 </r>
       <r>    -4.3314     0.0000   130.0000 </r>
       <r>    -4.2313     0.0000   130.0000 </r>
       <r>    -4.1313     0.0000   130.0000 </r>
       <r>    -4.0313     0.0000   130.0000 </r>
       <r>    -3.9312     0.0000   130.0000 </r>
       <r>    -3.8312     0.0000   130.0000 </r>
       <r>    -3.7312     0.0000   130.0000 </r>
       <r>    -3.6312     0.0000   130.0000 </r>
       <r>    -3.5311     0.0000   130.0000 </r>
       <r>    -3.4311     0.0000   130.0000 </r>
       <r>    -3.3311     0.0000   130.0000 </r>
       <r>    -3.2310     0.0000   130.0000 </r>
       <r>    -3.1310     0.0000   130.0000 </r>
       <r>    -3.0310     0.0000   130.0000 </r>
       <r>    -2.9310     0.0000   130.0000 </r>
       <r>    -2.8309     0.0000   130.0000 </r>
       <r>    -2.7309     0.0000   130.0000 </r>
       <r>    -2.6309     0.0002   130.0000 </r>
       <r>    -2.5308     0.0032   130.0003 </r>
       <r>    -2.4308     0.0352   130.0039 </r>
       <r>    -2.3308     0.2448   130.0284 </r>
       <r>    -2.2308     1.1123   130.1396 </r>
       <r>    -2.1307     3.4341   130.4831 </r>
       <r>    -2.0307     7.6558   131.2489 </r>
       <r>    -1.9307    13.3480   132.5841 </r>
       <r>    -1.8306    19.6792   134.5526 </r>
       <r>    -1.7306    26.0094   137.1543 </r>
       <r>    -1.6306    32.1241   140.3676 </r>
       <r>    -1.5306    37.5507   144.1237 </r>
       <r>    -1.4305    39.9264   148.1175 </r>
       <r>    -1.3305    36.0205   151.7205 </r>
       <r>    -1.2305    26.5971   154.3810 </r>
       <r>    -1.1305    18.4983   156.2313 </r>
       <r>    -1.0304    18.6807   158.0999 </r>
       <r>    -0.9304    27.3837   160.8391 </r>
       <r>    -0.8304    39.1910   164.7593 </r>
       <r>    -0.7303    48.1232   169.5730 </r>
       <r>    -0.6303    50.9723   174.6716 </r>
       <r>    -0.5303    49.0790   179.5809 </r>
       <r>    -0.4303    47.1674   184.2990 </r>
       <r>    -0.3302    49.0774   189.2081 </r>
       <r>    -0.2302    55.9629   194.8060 </r>
       <r>    -0.1302    67.4063   201.5485 </r>
       <r>    -0.0301    81.1216   209.6630 </r>
       <r>     0.0699    93.2747   218.9931 </r>
       <r>     0.1699   101.2769   229.1236 </r>
       <r>     0.2699   103.8505   239.5116 </r>
       <r>     0.3700    99.2917   249.4436 </r>
       <r>     0.4700    87.2163   258.1677 </r>
       <r>     0.5700    69.9002   265.1597 </r>
       <r>     0.6701    51.1632   270.2774 </r>
       <r>     0.7701    34.6784   273.7462 </r>
       <r>     0.8701    21.8256   275.9294 </r>
       <r>     0.9701    12.2897   277.1587 </r>
       <r>     1.0702     6.3085   277.7898 </r>
       <r>     1.1702     4.3117   278.2210 </r>
       <r>     1.2702     5.0909   278.7303 </r>
       <r>     1.3703     5.6872   279.2992 </r>
       <r>     1.4703     4.2738   279.7267 </r>
       <r>     1.5703     2.0195   279.9287 </r>
       <r>     1.6703     0.5926   279.9879 </r>
       <r>     1.7704     0.1076   279.9987 </r>
       <r>     1.8704     0.0121   279.9999 </r>
       <r>     1.9704     0.0008   280.0000 </r>
       <r>     2.0705     0.0000   280.0000 </r>
       <r>     2.1705     0.0000   280.0000 </r>
       <r>     2.2705     0.0000   280.0000 </r>
       <r>     2.3705     0.0000   280.0000 </r>
       <r>     2.4706     0.0000   280.0000 </r>
       <r>     2.5706     0.0006   280.0001 </r>
       <r>     2.6706     0.0086   280.0009 </r>
       <r>     2.7706     0.0747   280.0084 </r>
       <r>     2.8707     0.4244   280.0508 </r>
       <r>     2.9707     1.6041   280.2113 </r>
       <r>     3.0707     4.1638   280.6278 </r>
       <r>     3.1708     7.8354   281.4116 </r>
       <r>     3.2708    11.4476   282.5566 </r>
       <r>     3.3708    13.6251   283.9195 </r>
       <r>     3.4708    13.3998   285.2599 </r>
       <r>     3.5709    11.5285   286.4131 </r>
       <r>     3.6709    10.8748   287.5009 </r>
       <r>     3.7709    13.7320   288.8745 </r>
       <r>     3.8710    19.0962   290.7846 </r>
       <r>     3.9710    24.1020   293.1955 </r>
       <r>     4.0710    26.9687   295.8931 </r>
       <r>     4.1710    26.6115   298.5550 </r>
       <r>     4.2711    22.3265   300.7883 </r>
       <r>     4.3711    15.5389   302.3426 </r>
       <r>     4.4711     9.1329   303.2562 </r>
       <r>     4.5712     4.7012   303.7264 </r>
       <r>     4.6712     2.3584   303.9623 </r>
       <r>     4.7712     2.3224   304.1946 </r>
       <r>     4.8712     5.1510   304.7099 </r>
       <r>     4.9713    10.6251   305.7727 </r>
       <r>     5.0713    17.2113   307.4943 </r>
       <r>     5.1713    23.2662   309.8216 </r>
       <r>     5.2714    27.7504   312.5974 </r>
       <r>     5.3714    29.3244   315.5307 </r>
       <r>     5.4714    26.8036   318.2118 </r>
       <r>     5.5714    21.7209   320.3845 </r>
       <r>     5.6715    17.8954   322.1745 </r>
       <r>     5.7715    17.2139   323.8964 </r>
       <r>     5.8715    18.9613   325.7931 </r>
       <r>     5.9716    22.7471   328.0684 </r>
       <r>     6.0716    27.7827   330.8475 </r>
       <r>     6.1716    30.6068   333.9090 </r>
       <r>     6.2716    27.5335   336.6631 </r>
       <r>     6.3717    19.0540   338.5691 </r>
       <r>     6.4717     9.7240   339.5417 </r>
       <r>     6.5717     3.5303   339.8949 </r>
       <r>     6.6717     0.8842   339.9833 </r>
       <r>     6.7718     0.1490   339.9982 </r>
       <r>     6.8718     0.0165   339.9999 </r>
       <r>     6.9718     0.0012   340.0000 </r>
       <r>     7.0719     0.0001   340.0000 </r>
       <r>     7.1719     0.0000   340.0000 </r>
       <r>     7.2719     0.0000   340.0000 </r>
       <r>     7.3719     0.0000   340.0000 </r>
       <r>     7.4720     0.0000   340.0000 </r>
       <r>     7.5720     0.0000   340.0000 </r>
       <r>     7.6720     0.0000   340.0000 </r>
       <r>     7.7721     0.0000   340.0000 </r>
       <r>     7.8721     0.0000   340.0000 </r>
       <r>     7.9721     0.0000   340.0000 </r>
       <r>     8.0721     0.0000   340.0000 </r>
       <r>     8.1722     0.0000   340.0000 </r>
       <r>     8.2722     0.0000   340.0000 </r>
       <r>     8.3722     0.0000   340.0000 </r>
      </set>
     </set>
    </array>
   </total>
  </dos>
 </calculation>
 <structure name="finalpos" >
  <crystal>
   <varray name="basis" >
    <v>      12.57433319       0.00000000       0.00000000 </v>
    <v>       0.00000000      12.57433319       0.00000000 </v>
    <v>       0.00000000       0.00000000      12.57433319 </v>
   </varray>
   <i name="volume">   1988.17629733 </i>
   <varray name="rec_basis" >
    <v>       0.07952708       0.00000000       0.00000000 </v>
    <v>       0.00000000       0.07952708       0.00000000 </v>
    <v>       0.00000000       0.00000000       0.07952708 </v>
   </varray>
  </crystal>
  <varray name="positions" >
   <v>       0.01971492       0.01635013       0.01118151 </v>
   <v>       0.00849184       0.01283743       0.51023547 </v>
   <v>       0.00853693       0.50877421       0.00411424 </v>
   <v>       0.00299943       0.50808919       0.50023926 </v>
   <v>       0.50977610       0.00412126       0.00282100 </v>
   <v>       0.51037231       0.00495375       0.50258949 </v>
   <v>       0.50649751       0.50904383       0.01409875 </v>
   <v>       0.51820577       0.51876699       0.48956625 </v>
   <v>       0.25693120       0.22963167       0.22912250 </v>
   <v>       0.26223515       0.22483150       0.71603769 </v>
   <v>       0.23405621       0.71904937       0.25406389 </v>
   <v>       0.25851751       0.73038881       0.72402991 </v>
   <v>       0.75299753       0.27005063       0.25579599 </v>
   <v>       0.74117224       0.28661002       0.75593481 </v>
   <v>       0.76078724       0.80461730       0.27711608 </v>
   <v>       0.80716605       0.81529162       0.81177476 </v>
   <v>       0.97519952       0.05585920       0.25962633 </v>
   <v>       0.06567515       0.97396550       0.75984617 </v>
   <v>       0.03790144       0.45300942       0.25261862 </v>
   <v>      -0.01689450       0.55630997       0.75338256 </v>
   <v>       0.54892804       0.04309525       0.25217237 </v>
   <v>       0.46291106       0.97154474       0.75207181 </v>
   <v>       0.46369946       0.45415732       0.25291676 </v>
   <v>       0.45185367       0.46824001       0.76953876 </v>
   <v>       0.26429999       0.96087584       0.05742867 </v>
   <v>       0.25825179       0.02716174       0.46418577 </v>
   <v>       0.25448596       0.56704973      -0.00734109 </v>
   <v>       0.25289534       0.49087797       0.51628778 </v>
   <v>       0.76495962       0.06610691       0.97789692 </v>
   <v>       0.75885706       0.97937233       0.55121844 </v>
   <v>       0.75561279       0.45792077       1.01148393 </v>
   <v>       0.75722203       0.52741031       0.41208360 </v>
   <v>       0.06742191       0.26090947       0.96259456 </v>
   <v>       0.97983548       0.26017688       0.55796989 </v>
   <v>       0.97650541       0.76098225       0.05982267 </v>
   <v>       0.02174919       0.76089584       0.47009263 </v>
   <v>       0.45600234       0.25028223       0.97859801 </v>
   <v>       0.53581361       0.25538122       0.52583911 </v>
   <v>       0.57087713       0.75434523       0.02680091 </v>
   <v>       0.48115860       0.75841235       0.42386205 </v>
   <v>       0.63786373       0.62343194       0.68728117 </v>
  </varray>
 </structure>
</modeling>
