<?xml version="1.0" encoding="ISO-8859-1"?>
<modeling>
 <generator>
  <i name="program" type="string">vasp </i>
  <i name="version" type="string">6.4.3  </i>
  <i name="subversion" type="string">19Mar24 (build Jan  2 2025 14:32:07) complex                          parallel </i>
  <i name="platform" type="string">LinuxGNU </i>
  <i name="date" type="string">2025 11 13 </i>
  <i name="time" type="string">19:18:35 </i>
 </generator>
 <incar>
  <i type="string" name="SYSTEM">Cubic CsPbI3 + I_i(0) defect in relaxed 40 atom supercell</i>
  <i type="string" name="ALGO">Normal</i>
  <i type="int" name="NELM">    60</i>
  <i type="int" name="IBRION">     3</i>
  <i name="EDIFF">      0.00000100</i>
  <i name="EDIFFG">     -0.02000000</i>
  <i type="int" name="NSW">   200</i>
  <i type="int" name="ISIF">     2</i>
  <i type="int" name="ISYM">     0</i>
  <i name="ENCUT">    400.00000000</i>
  <i name="POTIM">      0.00000000</i>
  <i type="string" name="LREAL">Auto	</i>
  <i type="int" name="ISMEAR">     0</i>
  <i name="SIGMA">      0.20000000</i>
  <i type="string" name="GGA">PE</i>
  <i type="int" name="IVDW">    12</i>
  <i name="SPRING">     -5.00000000</i>
 </incar>
 <primitive_cell>
  <structure name="primitive_cell" >
   <crystal>
    <varray name="basis" >
     <v>      12.57433319       0.00000000       0.00000000 </v>
     <v>       0.00000000      12.57433319       0.00000000 </v>
     <v>       0.00000000       0.00000000      12.57433319 </v>
    </varray>
    <i name="volume">   1988.17629733 </i>
    <varray name="rec_basis" >
     <v>       0.07952708       0.00000000       0.00000000 </v>
     <v>       0.00000000       0.07952708       0.00000000 </v>
     <v>       0.00000000       0.00000000       0.07952708 </v>
    </varray>
   </crystal>
   <varray name="positions" >
    <v>       0.01713545       0.01122966       0.01098359 </v>
    <v>       0.00695047       0.01564462       0.50857327 </v>
    <v>       0.00551539       0.50486428       0.00274026 </v>
    <v>       0.00233273       0.51127980       0.49729053 </v>
    <v>       0.50649251       0.00274232       0.00620406 </v>
    <v>       0.50821180       0.01111732       0.50371309 </v>
    <v>       0.50752726       0.50262006       0.00922201 </v>
    <v>       0.52663537       0.51854636       0.49260896 </v>
    <v>       0.25867691       0.23476888       0.22479720 </v>
    <v>       0.25861576       0.24574169       0.71500772 </v>
    <v>       0.24110112       0.71846670       0.25702951 </v>
    <v>       0.25319286       0.74899371       0.73850516 </v>
    <v>       0.75659261       0.27121672       0.25895731 </v>
    <v>       0.74034920       0.25453022       0.76220531 </v>
    <v>       0.75837113       0.81601112       0.27217779 </v>
    <v>       0.79006725       0.80594313       0.80621856 </v>
    <v>       0.97977198       0.05859996       0.25917489 </v>
    <v>       0.05021481       0.97735651       0.75964634 </v>
    <v>       0.03641902       0.45119128       0.24966821 </v>
    <v>       0.99675205       0.56218030       0.75159435 </v>
    <v>       0.54083178       0.05318559       0.25487024 </v>
    <v>       0.47570971       0.97059517       0.75474730 </v>
    <v>       0.47459406       0.45098284       0.25119032 </v>
    <v>       0.43687937       0.50829987       0.76216634 </v>
    <v>       0.26185785       0.95723825       0.05418708 </v>
    <v>       0.25735339       0.04132729       0.47223620 </v>
    <v>       0.25429202       0.55578717       0.99862757 </v>
    <v>       0.25082999       0.49376346       0.50475643 </v>
    <v>       0.76251770       0.05022944       0.99108641 </v>
    <v>       0.75771567       0.98179371       0.54943242 </v>
    <v>       0.75641106       0.44886245       0.00477050 </v>
    <v>       0.75874236       0.53766285       0.39763358 </v>
    <v>       0.06351273       0.25727367       0.96219686 </v>
    <v>       0.97079948       0.26456629       0.55486979 </v>
    <v>       0.97429984       0.75757305       0.05607118 </v>
    <v>       0.02178116       0.76535074       0.46547227 </v>
    <v>       0.45947307       0.24947677       0.96601292 </v>
    <v>       0.53485496       0.26218809       0.53536412 </v>
    <v>       0.56247521       0.75138594       0.03333949 </v>
    <v>       0.48310457       0.76278530       0.44233781 </v>
    <v>       0.68039055       0.56043104       0.68931303 </v>
   </varray>
  </structure>
  <varray name="primitive_index" >
   <v type="int" >        1 </v>
   <v type="int" >        2 </v>
   <v type="int" >        3 </v>
   <v type="int" >        4 </v>
   <v type="int" >        5 </v>
   <v type="int" >        6 </v>
   <v type="int" >        7 </v>
   <v type="int" >        8 </v>
   <v type="int" >        9 </v>
   <v type="int" >       10 </v>
   <v type="int" >       11 </v>
   <v type="int" >       12 </v>
   <v type="int" >       13 </v>
   <v type="int" >       14 </v>
   <v type="int" >       15 </v>
   <v type="int" >       16 </v>
   <v type="int" >       17 </v>
   <v type="int" >       18 </v>
   <v type="int" >       19 </v>
   <v type="int" >       20 </v>
   <v type="int" >       21 </v>
   <v type="int" >       22 </v>
   <v type="int" >       23 </v>
   <v type="int" >       24 </v>
   <v type="int" >       25 </v>
   <v type="int" >       26 </v>
   <v type="int" >       27 </v>
   <v type="int" >       28 </v>
   <v type="int" >       29 </v>
   <v type="int" >       30 </v>
   <v type="int" >       31 </v>
   <v type="int" >       32 </v>
   <v type="int" >       33 </v>
   <v type="int" >       34 </v>
   <v type="int" >       35 </v>
   <v type="int" >       36 </v>
   <v type="int" >       37 </v>
   <v type="int" >       38 </v>
   <v type="int" >       39 </v>
   <v type="int" >       40 </v>
   <v type="int" >       41 </v>
  </varray>
 </primitive_cell>
 <kpoints>
  <generation param="Monkhorst-Pack">
   <v type="int" name="divisions">       3        3        3 </v>
   <v name="usershift">      0.00000000       0.00000000       0.00000000 </v>
   <v name="genvec1">      0.33333333       0.00000000       0.00000000 </v>
   <v name="genvec2">      0.00000000       0.33333333       0.00000000 </v>
   <v name="genvec3">      0.00000000       0.00000000       0.33333333 </v>
   <v name="shift">      0.00000000       0.00000000       0.00000000 </v>
  </generation>
  <varray name="kpointlist" >
   <v>       0.00000000       0.00000000       0.00000000 </v>
   <v>       0.33333333       0.00000000       0.00000000 </v>
   <v>       0.00000000       0.33333333       0.00000000 </v>
   <v>       0.00000000       0.00000000       0.33333333 </v>
   <v>       0.33333333       0.33333333       0.00000000 </v>
   <v>       0.00000000       0.33333333       0.33333333 </v>
   <v>       0.33333333       0.00000000       0.33333333 </v>
   <v>      -0.33333333       0.33333333       0.00000000 </v>
   <v>      -0.33333333       0.00000000       0.33333333 </v>
   <v>       0.00000000      -0.33333333       0.33333333 </v>
   <v>       0.33333333       0.33333333       0.33333333 </v>
   <v>      -0.33333333       0.33333333       0.33333333 </v>
   <v>      -0.33333333      -0.33333333       0.33333333 </v>
   <v>       0.33333333      -0.33333333       0.33333333 </v>
  </varray>
  <varray name="weights" >
   <v>       0.03703704 </v>
   <v>       0.07407407 </v>
   <v>       0.07407407 </v>
   <v>       0.07407407 </v>
   <v>       0.07407407 </v>
   <v>       0.07407407 </v>
   <v>       0.07407407 </v>
   <v>       0.07407407 </v>
   <v>       0.07407407 </v>
   <v>       0.07407407 </v>
   <v>       0.07407407 </v>
   <v>       0.07407407 </v>
   <v>       0.07407407 </v>
   <v>       0.07407407 </v>
  </varray>
 </kpoints>
 <parameters>
  <separator name="general" >
   <i type="string" name="SYSTEM">Cubic CsPbI3 + I_i(0) defect in relaxed</i>
   <i type="logical" name="LCOMPAT"> F  </i>
  </separator>
  <separator name="electronic" >
   <i type="string" name="PREC">normal</i>
   <i name="ENMAX">    400.00000000</i>
   <i name="ENAUG">    407.93300000</i>
   <i name="EDIFF">      0.00000100</i>
   <i type="int" name="IALGO">    38</i>
   <i type="int" name="IWAVPR">    11</i>
   <i type="int" name="NBANDS">   170</i>
   <i type="int" name="NBANDSLOW">    -1</i>
   <i type="int" name="NBANDSHIGH">    -1</i>
   <i name="NELECT">    279.00000000</i>
   <i type="int" name="TURBO">     0</i>
   <i type="int" name="IRESTART">     0</i>
   <i type="int" name="NREBOOT">     0</i>
   <i type="int" name="NMIN">     0</i>
   <i name="EREF">      0.00000000</i>
   <separator name="electronic smearing" >
    <i type="int" name="ISMEAR">     0</i>
    <i name="SIGMA">      0.20000000</i>
    <i name="KSPACING">      0.50000000</i>
    <i type="logical" name="KGAMMA"> T  </i>
    <i type="logical" name="KBLOWUP"> T  </i>
   </separator>
   <separator name="electronic projectors" >
    <i type="logical" name="LREAL"> T  </i>
    <v name="ROPT">     -0.00050000     -0.00050000     -0.00050000</v>
    <i type="int" name="LMAXPAW">  -100</i>
    <i type="int" name="LMAXMIX">     2</i>
    <i type="logical" name="NLSPLINE"> F  </i>
   </separator>
   <separator name="electronic startup" >
    <i type="int" name="ISTART">     0</i>
    <i type="int" name="ICHARG">     2</i>
    <i type="int" name="INIWAV">     1</i>
   </separator>
   <separator name="electronic spin" >
    <i type="int" name="ISPIN">     1</i>
    <i type="logical" name="LNONCOLLINEAR"> F  </i>
    <v name="MAGMOM">      1.00000000      1.00000000      1.00000000      1.00000000      1.00000000      1.00000000      1.00000000      1.00000000      1.00000000      1.00000000      1.00000000      1.00000000      1.00000000      1.00000000      1.00000000      1.00000000      1.00000000      1.00000000      1.00000000      1.00000000
      1.00000000      1.00000000      1.00000000      1.00000000      1.00000000      1.00000000      1.00000000      1.00000000      1.00000000      1.00000000      1.00000000      1.00000000      1.00000000      1.00000000      1.00000000      1.00000000      1.00000000      1.00000000      1.00000000      1.00000000
      1.00000000</v>
    <i name="NUPDOWN">     -1.00000000</i>
    <i type="logical" name="LSORBIT"> F  </i>
    <v name="SAXIS">      0.00000000      0.00000000      1.00000000</v>
    <i type="logical" name="LSPIRAL"> F  </i>
    <v name="QSPIRAL">      0.00000000      0.00000000      0.00000000</v>
    <i type="logical" name="LZEROZ"> F  </i>
   </separator>
   <separator name="electronic exchange-correlation" >
    <i type="logical" name="LASPH"> F  </i>
   </separator>
   <separator name="electronic convergence" >
    <i type="int" name="NELM">    60</i>
    <i type="int" name="NELMDL">    -5</i>
    <i type="int" name="NELMIN">     2</i>
    <i name="ENINI">    400.00000000</i>
    <separator name="electronic convergence detail" >
     <i type="logical" name="LDIAG"> T  </i>
     <i type="logical" name="LSUBROT"> F  </i>
     <i name="WEIMIN">      0.00100000</i>
     <i name="EBREAK">      0.00000000</i>
     <i name="DEPER">      0.30000000</i>
     <i type="int" name="NRMM">     4</i>
     <i name="TIME">      0.40000000</i>
    </separator>
   </separator>
   <separator name="electronic mixer" >
    <i name="AMIX">      0.40000000</i>
    <i name="BMIX">      1.00000000</i>
    <i name="AMIN">      0.10000000</i>
    <i name="AMIX_MAG">      1.60000000</i>
    <i name="BMIX_MAG">      1.00000000</i>
    <separator name="electronic mixer details" >
     <i type="int" name="IMIX">     4</i>
     <i type="logical" name="MIXFIRST"> F  </i>
     <i type="int" name="MAXMIX">   -45</i>
     <i name="WC">    100.00000000</i>
     <i type="int" name="INIMIX">     1</i>
     <i type="int" name="MIXPRE">     1</i>
     <i type="int" name="MREMOVE">     5</i>
    </separator>
   </separator>
   <separator name="electronic dipolcorrection" >
    <i type="logical" name="LDIPOL"> F  </i>
    <i type="logical" name="LMONO"> F  </i>
    <i type="int" name="IDIPOL">     0</i>
    <i name="EPSILON">      1.00000000</i>
    <v name="DIPOL">   -100.00000000   -100.00000000   -100.00000000</v>
    <i name="EFIELD">      0.00000000</i>
    <i type="logical" name="LVACPOTAV"> F  </i>
   </separator>
  </separator>
  <separator name="grids" >
   <i type="int" name="NGX">    64</i>
   <i type="int" name="NGY">    64</i>
   <i type="int" name="NGZ">    64</i>
   <i type="int" name="NGXF">   128</i>
   <i type="int" name="NGYF">   128</i>
   <i type="int" name="NGZF">   128</i>
   <i type="logical" name="ADDGRID"> F  </i>
  </separator>
  <separator name="ionic" >
   <i type="int" name="NSW">   200</i>
   <i type="int" name="IBRION">     3</i>
   <i type="int" name="MDALGO">     0</i>
   <i type="int" name="ISIF">     2</i>
   <i name="PSTRESS">      0.00000000</i>
   <i name="EDIFFG">     -0.02000000</i>
   <i type="int" name="NFREE">     0</i>
   <i name="POTIM">      0.00000000</i>
   <i name="SMASS">     -3.00000000</i>
   <i name="SCALEE">      1.00000000</i>
  </separator>
  <separator name="ionic md" >
   <i name="TEBEG">      0.00010000</i>
   <i name="TEEND">      0.00010000</i>
   <i type="int" name="NBLOCK">     1</i>
   <i type="int" name="KBLOCK">   200</i>
   <i type="int" name="NPACO">   256</i>
   <i name="APACO">     10.00000000</i>
  </separator>
  <separator name="symmetry" >
   <i type="int" name="ISYM">     0</i>
   <i name="SYMPREC">      0.00001000</i>
  </separator>
  <separator name="dos" >
   <i type="int" name="LORBIT">     0</i>
   <v name="RWIGS">     -1.00000000     -1.00000000     -1.00000000</v>
   <i type="int" name="NEDOS">   301</i>
   <i name="EMIN">     10.00000000</i>
   <i name="EMAX">    -10.00000000</i>
   <i name="EFERMI">      0.00000000</i>
  </separator>
  <separator name="writing" >
   <i type="int" name="NWRITE">     2</i>
   <i type="logical" name="LWAVE"> T  </i>
   <i type="logical" name="LDOWNSAMPLE"> F  </i>
   <i type="logical" name="LCHARG"> T  </i>
   <i type="logical" name="LPARD"> F  </i>
   <i type="logical" name="LVTOT"> F  </i>
   <i type="logical" name="LVHAR"> F  </i>
   <i type="logical" name="LELF"> F  </i>
   <i type="logical" name="LOPTICS"> F  </i>
   <v name="STM">      0.00000000      0.00000000      0.00000000      0.00000000      0.00000000      0.00000000      0.00000000</v>
  </separator>
  <separator name="performance" >
   <i type="int" name="NPAR">    10</i>
   <i type="int" name="NSIM">     4</i>
   <i type="int" name="NBLK">    -1</i>
   <i type="logical" name="LPLANE"> T  </i>
   <i type="logical" name="LSCALAPACK"> T  </i>
   <i type="logical" name="LSCAAWARE"> F  </i>
   <i type="logical" name="LSCALU"> F  </i>
   <i type="logical" name="LASYNC"> F  </i>
   <i type="logical" name="LORBITALREAL"> F  </i>
  </separator>
  <separator name="miscellaneous" >
   <i type="int" name="IDIOT">     3</i>
   <i type="int" name="PHON_NSTRUCT">    -1</i>
   <i type="logical" name="LMUSIC"> F  </i>
   <v name="POMASS">    207.20000000    132.90000000    126.90400000</v>
   <v name="DARWINR">      0.00000000      0.00000000      0.00000000</v>
   <v name="DARWINV">      1.00000000      1.00000000      1.00000000</v>
   <i type="logical" name="LCORR"> T  </i>
  </separator>
  <i type="logical" name="GGA_COMPAT"> T  </i>
  <i type="logical" name="LBERRY"> F  </i>
  <i type="int" name="ICORELEVEL">     0</i>
  <i type="logical" name="LDAU"> F  </i>
  <i type="int" name="I_CONSTRAINED_M">     0</i>
  <separator name="electronic exchange-correlation" >
   <i type="string" name="GGA    ">PE</i>
   <i type="string" name="XC_C">1</i>
   <i type="int" name="VOSKOWN">     0</i>
   <i type="logical" name="LHFCALC"> F  </i>
   <i type="string" name="PRECFOCK"></i>
   <i type="logical" name="LSYMGRAD"> F  </i>
   <i type="logical" name="LHFONE"> F  </i>
   <i type="logical" name="LRHFCALC"> F  </i>
   <i type="logical" name="LTHOMAS"> F  </i>
   <i type="logical" name="LMODELHF"> F  </i>
   <i type="logical" name="LFOCKACE"> F  </i>
   <i name="ENCUT4O">     -1.00000000</i>
   <i type="int" name="EXXOEP">     0</i>
   <i type="int" name="FOURORBIT">     0</i>
   <i name="AEXX">      0.00000000</i>
   <i name="HFALPHA">      0.00000000</i>
   <i name="MCALPHA">      0.00000000</i>
   <i name="ALDAX">      1.00000000</i>
   <i name="AGGAX">      1.00000000</i>
   <i name="AMGGAX">      1.00000000</i>
   <i name="ALDAC">      1.00000000</i>
   <i name="AGGAC">      1.00000000</i>
   <i name="AMGGAC">      1.00000000</i>
   <i type="int" name="NKREDX">     1</i>
   <i type="int" name="NKREDY">     1</i>
   <i type="int" name="NKREDZ">     1</i>
   <i type="logical" name="SHIFTRED"> F  </i>
   <i type="logical" name="ODDONLY"> F  </i>
   <i type="logical" name="EVENONLY"> F  </i>
   <i type="int" name="LMAXFOCK">     0</i>
   <i type="int" name="NMAXFOCKAE">     0</i>
   <i type="logical" name="LFOCKAEDFT"> F  </i>
   <i name="HFSCREEN">      0.00000000</i>
   <i name="HFSCREENC">      0.00000000</i>
   <i type="int" name="NBANDSGWLOW">     0</i>
  </separator>
  <separator name="vdW DFT" >
   <i type="logical" name="LUSE_VDW"> F  </i>
   <i type="int" name="IVDW_NL">    -1</i>
   <i type="logical" name="LSPIN_VDW"> F  </i>
   <i name="ZAB_VDW">     -0.84910000</i>
   <i name="GAMMA_VDW">      1.39626340</i>
   <i name="ALPHA_VDW">      0.00000000</i>
   <i name="PARAM1">      0.12340000</i>
   <i name="PARAM2">      1.00000000</i>
   <i name="BPARAM">      6.30000000</i>
   <i name="CPARAM">      0.00930000</i>
  </separator>
  <separator name="model GW" >
   <i type="int" name="MODEL_GW">     0</i>
   <i name="MODEL_EPS0">     29.09526289</i>
   <i name="MODEL_ALPHA">      1.00000000</i>
  </separator>
  <separator name="linear response parameters" >
   <i type="logical" name="LEPSILON"> F  </i>
   <i type="logical" name="LRPA"> F  </i>
   <i type="logical" name="LNABLA"> F  </i>
   <i type="logical" name="LVEL"> F  </i>
   <i name="CSHIFT">      0.10000000</i>
   <i name="OMEGAMAX">     -1.00000000</i>
   <i name="DEG_THRESHOLD">      0.00200000</i>
   <i name="RTIME">     -0.10000000</i>
   <i name="WPLASMAI">      0.00000000</i>
   <v name="DFIELD">      0.00000000      0.00000000      0.00000000</v>
   <v name="WPLASMA">      0.00000000      0.00000000      0.00000000      0.00000000      0.00000000      0.00000000      0.00000000      0.00000000      0.00000000</v>
  </separator>
  <separator name="orbital magnetization" >
   <i type="logical" name="NUCIND"> F  </i>
   <v name="MAGPOS">      0.00000000      0.00000000      0.00000000</v>
   <i type="logical" name="LNICSALL"> T  </i>
   <i type="logical" name="ORBITALMAG"> F  </i>
   <i type="logical" name="LMAGBLOCH"> F  </i>
   <i type="logical" name="LCHIMAG"> F  </i>
   <i type="logical" name="LGAUGE"> T  </i>
   <i type="int" name="MAGATOM">     0</i>
   <v name="MAGDIPOL">      0.00000000      0.00000000      0.00000000</v>
   <v name="AVECCONST">      0.00000000      0.00000000      0.00000000</v>
  </separator>
  <separator name="response functions" >
   <i type="logical" name="LALL_IN_ONE"> F  </i>
   <i type="int" name="IALL_IN_ONE">    -1</i>
   <i type="int" name="NBANDS_WAVE">    -1</i>
   <i type="logical" name="LFINITE_TEMPERATURE"> F  </i>
   <i type="logical" name="LADDER"> F  </i>
   <i type="logical" name="LRPAFORCE"> F  </i>
   <i type="logical" name="LFXC"> F  </i>
   <i type="logical" name="LHARTREE"> T  </i>
   <i type="int" name="IBSE">     0</i>
   <v type="int" name="KPOINT">    -1     0     0     0</v>
   <i type="logical" name="LTCTC"> F  </i>
   <i type="logical" name="LTCTE"> F  </i>
   <i type="logical" name="LTETE"> F  </i>
   <i type="logical" name="LTRIPLET"> F  </i>
   <i type="logical" name="LFXCEPS"> F  </i>
   <i type="logical" name="LFXHEG"> F  </i>
   <i type="int" name="NATURALO">     2</i>
   <i type="logical" name="LHOLEGF"> F  </i>
   <i type="logical" name="L2ORDER"> F  </i>
   <i type="logical" name="LDMP1"> F  </i>
   <i type="logical" name="LMP2LT"> F  </i>
   <i type="logical" name="LSMP2LT"> F  </i>
   <i type="logical" name="LGWLF"> F  </i>
   <i name="ENCUTGW">     -1.60000002</i>
   <i name="ENCUTGWSOFT">     -1.60000002</i>
   <i name="ENCUTLF">     -1.00000000</i>
   <i type="logical" name="ESF_SPLINES"> F  </i>
   <i name="ESF_CONV">      0.01000000</i>
   <i type="int" name="ESF_NINTER">    15</i>
   <i type="int" name="LMAXMP2">    -1</i>
   <i name="SCISSOR">      0.00000000</i>
   <i type="int" name="NOMEGA">     0</i>
   <i type="int" name="NOMEGAR">     0</i>
   <i type="int" name="NBANDSGW">    -1</i>
   <i type="int" name="NBANDSO">    -1</i>
   <i type="int" name="NBANDSV">    -1</i>
   <i type="int" name="NELMGW">     1</i>
   <i type="int" name="NELMHF">     1</i>
   <i type="int" name="DIM">     3</i>
   <i type="int" name="IESPILON">     4</i>
   <i type="int" name="ANTIRES">     0</i>
   <i name="OMEGAMAX">    -30.00000000</i>
   <i name="OMEGAMIN">    -30.00000000</i>
   <i name="OMEGATL">   -200.00000000</i>
   <i type="int" name="OMEGAGRID">     0</i>
   <i name="CSHIFT">     -0.10000000</i>
   <i type="logical" name="LSELFENERGY"> F  </i>
   <i type="logical" name="LSPECTRAL"> F  </i>
   <i type="logical" name="LSPECTRALGW"> F  </i>
   <i type="logical" name="LSINGLES"> F  </i>
   <i type="logical" name="LFERMIGW"> F  </i>
   <i type="logical" name="ODDONLYGW"> F  </i>
   <i type="logical" name="EVENONLYGW"> F  </i>
   <i type="int" name="NKREDLFX">     1</i>
   <i type="int" name="NKREDLFY">     1</i>
   <i type="int" name="NKREDLFZ">     1</i>
   <i type="int" name="MAXMEM">  2800</i>
   <i type="int" name="TELESCOPE">     0</i>
   <i type="int" name="NTAUPAR">    -1</i>
   <i type="int" name="NOMEGAPAR">    -1</i>
   <i name="DAMP_NEWTON">      0.80000001</i>
   <i name="LAMBDA">      1.00000000</i>
  </separator>
  <separator name="External order field" >
   <i name="OFIELD_KAPPA">      0.00000000</i>
   <v name="OFIELD_K">      0.00000000      0.00000000      0.00000000</v>
   <i name="OFIELD_Q6_NEAR">      0.00000000</i>
   <i name="OFIELD_Q6_FAR">      0.00000000</i>
   <i name="OFIELD_A">      0.00000000</i>
  </separator>
  <separator name="optional k-points parameters" >
   <i type="int" name="KPOINTS_OPT_MODE">     1</i>
   <i type="logical" name="LKPOINTS_OPT"> F  </i>
  </separator>
 </parameters>
 <atominfo>
  <atoms>      41 </atoms>
  <types>       3 </types>
  <array name="atoms" >
   <dimension dim="1">ion</dimension>
   <field type="string">element</field>
   <field type="int">atomtype</field>
   <set>
    <rc><c>Pb</c><c>   1</c></rc>
    <rc><c>Pb</c><c>   1</c></rc>
    <rc><c>Pb</c><c>   1</c></rc>
    <rc><c>Pb</c><c>   1</c></rc>
    <rc><c>Pb</c><c>   1</c></rc>
    <rc><c>Pb</c><c>   1</c></rc>
    <rc><c>Pb</c><c>   1</c></rc>
    <rc><c>Pb</c><c>   1</c></rc>
    <rc><c>Cs</c><c>   2</c></rc>
    <rc><c>Cs</c><c>   2</c></rc>
    <rc><c>Cs</c><c>   2</c></rc>
    <rc><c>Cs</c><c>   2</c></rc>
    <rc><c>Cs</c><c>   2</c></rc>
    <rc><c>Cs</c><c>   2</c></rc>
    <rc><c>Cs</c><c>   2</c></rc>
    <rc><c>Cs</c><c>   2</c></rc>
    <rc><c>I </c><c>   3</c></rc>
    <rc><c>I </c><c>   3</c></rc>
    <rc><c>I </c><c>   3</c></rc>
    <rc><c>I </c><c>   3</c></rc>
    <rc><c>I </c><c>   3</c></rc>
    <rc><c>I </c><c>   3</c></rc>
    <rc><c>I </c><c>   3</c></rc>
    <rc><c>I </c><c>   3</c></rc>
    <rc><c>I </c><c>   3</c></rc>
    <rc><c>I </c><c>   3</c></rc>
    <rc><c>I </c><c>   3</c></rc>
    <rc><c>I </c><c>   3</c></rc>
    <rc><c>I </c><c>   3</c></rc>
    <rc><c>I </c><c>   3</c></rc>
    <rc><c>I </c><c>   3</c></rc>
    <rc><c>I </c><c>   3</c></rc>
    <rc><c>I </c><c>   3</c></rc>
    <rc><c>I </c><c>   3</c></rc>
    <rc><c>I </c><c>   3</c></rc>
    <rc><c>I </c><c>   3</c></rc>
    <rc><c>I </c><c>   3</c></rc>
    <rc><c>I </c><c>   3</c></rc>
    <rc><c>I </c><c>   3</c></rc>
    <rc><c>I </c><c>   3</c></rc>
    <rc><c>I </c><c>   3</c></rc>
   </set>
  </array>
  <array name="atomtypes" >
   <dimension dim="1">type</dimension>
   <field type="int">atomspertype</field>
   <field type="string">element</field>
   <field>mass</field>
   <field>valence</field>
   <field type="string">pseudopotential</field>
   <set>
    <rc><c>   8</c><c>Pb</c><c>    207.20000000</c><c>      4.00000000</c><c>  PAW_PBE Pb 08Apr2002                  </c></rc>
    <rc><c>   8</c><c>Cs</c><c>    132.90000000</c><c>      9.00000000</c><c>  PAW_PBE Cs_sv 25Jan2019               </c></rc>
    <rc><c>  25</c><c>I </c><c>    126.90400000</c><c>      7.00000000</c><c>  PAW_PBE I 08Apr2002                   </c></rc>
   </set>
  </array>
 </atominfo>
 <structure name="initialpos" >
  <crystal>
   <varray name="basis" >
    <v>      12.57433319       0.00000000       0.00000000 </v>
    <v>       0.00000000      12.57433319       0.00000000 </v>
    <v>       0.00000000       0.00000000      12.57433319 </v>
   </varray>
   <i name="volume">   1988.17629733 </i>
   <varray name="rec_basis" >
    <v>       0.07952708       0.00000000       0.00000000 </v>
    <v>       0.00000000       0.07952708       0.00000000 </v>
    <v>       0.00000000       0.00000000       0.07952708 </v>
   </varray>
  </crystal>
  <varray name="positions" >
   <v>       0.01713545       0.01122966       0.01098359 </v>
   <v>       0.00695047       0.01564462       0.50857327 </v>
   <v>       0.00551539       0.50486428       0.00274026 </v>
   <v>       0.00233273       0.51127980       0.49729053 </v>
   <v>       0.50649251       0.00274232       0.00620406 </v>
   <v>       0.50821180       0.01111732       0.50371309 </v>
   <v>       0.50752726       0.50262006       0.00922201 </v>
   <v>       0.52663537       0.51854636       0.49260896 </v>
   <v>       0.25867691       0.23476888       0.22479720 </v>
   <v>       0.25861576       0.24574169       0.71500772 </v>
   <v>       0.24110112       0.71846670       0.25702951 </v>
   <v>       0.25319286       0.74899371       0.73850516 </v>
   <v>       0.75659261       0.27121672       0.25895731 </v>
   <v>       0.74034920       0.25453022       0.76220531 </v>
   <v>       0.75837113       0.81601112       0.27217779 </v>
   <v>       0.79006725       0.80594313       0.80621856 </v>
   <v>       0.97977198       0.05859996       0.25917489 </v>
   <v>       0.05021481       0.97735651       0.75964634 </v>
   <v>       0.03641902       0.45119128       0.24966821 </v>
   <v>       0.99675205       0.56218030       0.75159435 </v>
   <v>       0.54083178       0.05318559       0.25487024 </v>
   <v>       0.47570971       0.97059517       0.75474730 </v>
   <v>       0.47459406       0.45098284       0.25119032 </v>
   <v>       0.43687937       0.50829987       0.76216634 </v>
   <v>       0.26185785       0.95723825       0.05418708 </v>
   <v>       0.25735339       0.04132729       0.47223620 </v>
   <v>       0.25429202       0.55578717       0.99862757 </v>
   <v>       0.25082999       0.49376346       0.50475643 </v>
   <v>       0.76251770       0.05022944       0.99108641 </v>
   <v>       0.75771567       0.98179371       0.54943242 </v>
   <v>       0.75641106       0.44886245       0.00477050 </v>
   <v>       0.75874236       0.53766285       0.39763358 </v>
   <v>       0.06351273       0.25727367       0.96219686 </v>
   <v>       0.97079948       0.26456629       0.55486979 </v>
   <v>       0.97429984       0.75757305       0.05607118 </v>
   <v>       0.02178116       0.76535074       0.46547227 </v>
   <v>       0.45947307       0.24947677       0.96601292 </v>
   <v>       0.53485496       0.26218809       0.53536412 </v>
   <v>       0.56247521       0.75138594       0.03333949 </v>
   <v>       0.48310457       0.76278530       0.44233781 </v>
   <v>       0.68039055       0.56043104       0.68931303 </v>
  </varray>
 </structure>
 <calculation>
  <scstep>
   <time name="dav">   17.55   17.59</time>
   <time name="total">   17.62   17.66</time>
   <energy>
    <i name="alphaZ">    325.71046388 </i>
    <i name="ewald"> -10942.05254778 </i>
    <i name="hartreedc">  -1797.13823738 </i>
    <i name="XCdc">  -1769.56231707 </i>
    <i name="pawpsdc">  12287.06968193 </i>
    <i name="pawaedc"> -10010.08791678 </i>
    <i name="eentropy">     -0.34219562 </i>
    <i name="bandstr">    508.36409117 </i>
    <i name="atom">  13117.98845597 </i>
    <i name="e_fr_energy">   1719.94947833 </i>
    <i name="e_wo_entrp">   1720.29167395 </i>
    <i name="e_0_energy">   1720.12057614 </i>
   </energy>
  </scstep>
  <scstep>
   <time name="dav">   22.49   22.49</time>
   <time name="total">   22.49   22.50</time>
   <energy>
    <i name="e_fr_energy">     89.60654414 </i>
    <i name="e_wo_entrp">     89.69896485 </i>
    <i name="e_0_energy">     89.65275449 </i>
   </energy>
  </scstep>
  <scstep>
   <time name="dav">   20.52   20.52</time>
   <time name="total">   20.52   20.52</time>
   <energy>
    <i name="e_fr_energy">   -111.36032126 </i>
    <i name="e_wo_entrp">   -111.24162831 </i>
    <i name="e_0_energy">   -111.30097479 </i>
   </energy>
  </scstep>
  <scstep>
   <time name="dav">   21.22   21.22</time>
   <time name="total">   21.22   21.22</time>
   <energy>
    <i name="e_fr_energy">   -117.15915369 </i>
    <i name="e_wo_entrp">   -117.04059676 </i>
    <i name="e_0_energy">   -117.09987522 </i>
   </energy>
  </scstep>
  <scstep>
   <time name="dav">   21.53   21.53</time>
   <time name="total">   22.09   22.09</time>
   <energy>
    <i name="e_fr_energy">   -117.29296198 </i>
    <i name="e_wo_entrp">   -117.17440269 </i>
    <i name="e_0_energy">   -117.23368234 </i>
   </energy>
  </scstep>
  <scstep>
   <time name="dav">   20.60   20.60</time>
   <time name="total">   21.32   21.32</time>
   <energy>
    <i name="e_fr_energy">   -114.27959075 </i>
    <i name="e_wo_entrp">   -114.16307322 </i>
    <i name="e_0_energy">   -114.22133198 </i>
   </energy>
  </scstep>
  <scstep>
   <time name="dav">   21.23   21.23</time>
   <time name="total">   21.95   21.96</time>
   <energy>
    <i name="e_fr_energy">   -114.02610880 </i>
    <i name="e_wo_entrp">   -113.91198685 </i>
    <i name="e_0_energy">   -113.96904782 </i>
   </energy>
  </scstep>
  <scstep>
   <time name="dav">   20.57   20.57</time>
   <time name="total">   21.30   21.30</time>
   <energy>
    <i name="e_fr_energy">   -114.06032488 </i>
    <i name="e_wo_entrp">   -113.94660286 </i>
    <i name="e_0_energy">   -114.00346387 </i>
   </energy>
  </scstep>
  <scstep>
   <time name="dav">   21.76   21.76</time>
   <time name="total">   22.49   22.50</time>
   <energy>
    <i name="e_fr_energy">   -114.05528780 </i>
    <i name="e_wo_entrp">   -113.94159087 </i>
    <i name="e_0_energy">   -113.99843933 </i>
   </energy>
  </scstep>
  <scstep>
   <time name="dav">   20.15   20.15</time>
   <time name="total">   20.88   20.88</time>
   <energy>
    <i name="e_fr_energy">   -114.01698751 </i>
    <i name="e_wo_entrp">   -113.90342600 </i>
    <i name="e_0_energy">   -113.96020675 </i>
   </energy>
  </scstep>
  <scstep>
   <time name="dav">   20.26   20.26</time>
   <time name="total">   20.99   20.99</time>
   <energy>
    <i name="e_fr_energy">   -114.01727121 </i>
    <i name="e_wo_entrp">   -113.90368827 </i>
    <i name="e_0_energy">   -113.96047974 </i>
   </energy>
  </scstep>
  <scstep>
   <time name="dav">   21.66   21.67</time>
   <time name="total">   22.40   22.40</time>
   <energy>
    <i name="e_fr_energy">   -114.01692871 </i>
    <i name="e_wo_entrp">   -113.90333318 </i>
    <i name="e_0_energy">   -113.96013094 </i>
   </energy>
  </scstep>
  <scstep>
   <time name="dav">   20.12   20.12</time>
   <time name="total">   20.85   20.86</time>
   <energy>
    <i name="e_fr_energy">   -114.01659489 </i>
    <i name="e_wo_entrp">   -113.90297545 </i>
    <i name="e_0_energy">   -113.95978517 </i>
   </energy>
  </scstep>
  <scstep>
   <time name="dav">   19.60   19.60</time>
   <time name="total">   20.34   20.34</time>
   <energy>
    <i name="e_fr_energy">   -114.01705907 </i>
    <i name="e_wo_entrp">   -113.90336178 </i>
    <i name="e_0_energy">   -113.96021043 </i>
   </energy>
  </scstep>
  <scstep>
   <time name="dav">   20.38   20.38</time>
   <time name="total">   21.12   21.12</time>
   <energy>
    <i name="e_fr_energy">   -114.01702610 </i>
    <i name="e_wo_entrp">   -113.90335184 </i>
    <i name="e_0_energy">   -113.96018897 </i>
   </energy>
  </scstep>
  <scstep>
   <time name="dav">   20.83   20.84</time>
   <time name="total">   21.57   21.57</time>
   <energy>
    <i name="e_fr_energy">   -114.01702198 </i>
    <i name="e_wo_entrp">   -113.90335630 </i>
    <i name="e_0_energy">   -113.96018914 </i>
   </energy>
  </scstep>
  <scstep>
   <time name="dav">   19.52   19.52</time>
   <time name="total">   20.27   20.27</time>
   <energy>
    <i name="e_fr_energy">   -114.01702971 </i>
    <i name="e_wo_entrp">   -113.90336321 </i>
    <i name="e_0_energy">   -113.96019646 </i>
   </energy>
  </scstep>
  <scstep>
   <time name="dav">   20.25   20.25</time>
   <time name="total">   20.99   20.99</time>
   <energy>
    <i name="e_fr_energy">   -114.01703444 </i>
    <i name="e_wo_entrp">   -113.90338002 </i>
    <i name="e_0_energy">   -113.96020723 </i>
   </energy>
  </scstep>
  <scstep>
   <time name="dav">   18.31   18.31</time>
   <time name="total">   18.42   18.42</time>
   <energy>
    <i name="alphaZ">    325.71046388 </i>
    <i name="ewald"> -10942.05254778 </i>
    <i name="hartreedc">  -1856.62915292 </i>
    <i name="XCdc">  -1761.21483470 </i>
    <i name="pawpsdc">  15131.93575524 </i>
    <i name="pawaedc"> -12857.16207083 </i>
    <i name="eentropy">     -0.11365319 </i>
    <i name="bandstr">  -1272.47945055 </i>
    <i name="atom">  13117.98845597 </i>
    <i name="e_fr_energy">   -114.01703486 </i>
    <i name="e_wo_entrp">   -113.90338167 </i>
    <i name="e_0_energy">   -113.96020827 </i>
   </energy>
  </scstep>
  <structure>
   <crystal>
    <varray name="basis" >
     <v>      12.57433319       0.00000000       0.00000000 </v>
     <v>       0.00000000      12.57433319       0.00000000 </v>
     <v>       0.00000000       0.00000000      12.57433319 </v>
    </varray>
    <i name="volume">   1988.17629733 </i>
    <varray name="rec_basis" >
     <v>       0.07952708       0.00000000       0.00000000 </v>
     <v>       0.00000000       0.07952708       0.00000000 </v>
     <v>       0.00000000       0.00000000       0.07952708 </v>
    </varray>
   </crystal>
   <varray name="positions" >
    <v>       0.01713545       0.01122966       0.01098359 </v>
    <v>       0.00695047       0.01564462       0.50857327 </v>
    <v>       0.00551539       0.50486428       0.00274026 </v>
    <v>       0.00233273       0.51127980       0.49729053 </v>
    <v>       0.50649251       0.00274232       0.00620406 </v>
    <v>       0.50821180       0.01111732       0.50371309 </v>
    <v>       0.50752726       0.50262006       0.00922201 </v>
    <v>       0.52663537       0.51854636       0.49260896 </v>
    <v>       0.25867691       0.23476888       0.22479720 </v>
    <v>       0.25861576       0.24574169       0.71500772 </v>
    <v>       0.24110112       0.71846670       0.25702951 </v>
    <v>       0.25319286       0.74899371       0.73850516 </v>
    <v>       0.75659261       0.27121672       0.25895731 </v>
    <v>       0.74034920       0.25453022       0.76220531 </v>
    <v>       0.75837113       0.81601112       0.27217779 </v>
    <v>       0.79006725       0.80594313       0.80621856 </v>
    <v>       0.97977198       0.05859996       0.25917489 </v>
    <v>       0.05021481       0.97735651       0.75964634 </v>
    <v>       0.03641902       0.45119128       0.24966821 </v>
    <v>       0.99675205       0.56218030       0.75159435 </v>
    <v>       0.54083178       0.05318559       0.25487024 </v>
    <v>       0.47570971       0.97059517       0.75474730 </v>
    <v>       0.47459406       0.45098284       0.25119032 </v>
    <v>       0.43687937       0.50829987       0.76216634 </v>
    <v>       0.26185785       0.95723825       0.05418708 </v>
    <v>       0.25735339       0.04132729       0.47223620 </v>
    <v>       0.25429202       0.55578717       0.99862757 </v>
    <v>       0.25082999       0.49376346       0.50475643 </v>
    <v>       0.76251770       0.05022944       0.99108641 </v>
    <v>       0.75771567       0.98179371       0.54943242 </v>
    <v>       0.75641106       0.44886245       0.00477050 </v>
    <v>       0.75874236       0.53766285       0.39763358 </v>
    <v>       0.06351273       0.25727367       0.96219686 </v>
    <v>       0.97079948       0.26456629       0.55486979 </v>
    <v>       0.97429984       0.75757305       0.05607118 </v>
    <v>       0.02178116       0.76535074       0.46547227 </v>
    <v>       0.45947307       0.24947677       0.96601292 </v>
    <v>       0.53485496       0.26218809       0.53536412 </v>
    <v>       0.56247521       0.75138594       0.03333949 </v>
    <v>       0.48310457       0.76278530       0.44233781 </v>
    <v>       0.68039055       0.56043104       0.68931303 </v>
   </varray>
  </structure>
  <varray name="forces" >
   <v>      -0.00166828      -0.00086595      -0.00012712 </v>
   <v>       0.00244030       0.00624208      -0.00130421 </v>
   <v>      -0.00774507       0.00412556      -0.00448881 </v>
   <v>      -0.00280283       0.00468748      -0.00357558 </v>
   <v>      -0.00293592       0.00421946      -0.00616738 </v>
   <v>       0.00120632       0.00598972      -0.00261619 </v>
   <v>      -0.00874648      -0.00364997       0.00748762 </v>
   <v>       0.01409087      -0.01351663      -0.00174226 </v>
   <v>      -0.00655132      -0.01226714      -0.00767315 </v>
   <v>       0.00374357       0.00413313       0.00594788 </v>
   <v>       0.02033568      -0.01546022      -0.00046439 </v>
   <v>      -0.01675235       0.00070622      -0.04716505 </v>
   <v>      -0.00974301      -0.00793810      -0.00254967 </v>
   <v>       0.01769293       0.00618710       0.01019035 </v>
   <v>      -0.01044377       0.01097595      -0.00226382 </v>
   <v>      -0.02938886       0.00577488      -0.00365004 </v>
   <v>       0.00324629       0.00550492       0.00055109 </v>
   <v>      -0.00311261       0.00849765       0.00132968 </v>
   <v>       0.01259137      -0.00182082       0.00300033 </v>
   <v>      -0.04399689       0.01184675      -0.00000632 </v>
   <v>      -0.00687490      -0.00171948       0.00068950 </v>
   <v>       0.00224202      -0.01658702      -0.00307806 </v>
   <v>      -0.02128863       0.00843613       0.00338783 </v>
   <v>      -0.03037224       0.04435656      -0.00419321 </v>
   <v>      -0.00396412      -0.00324985       0.00151573 </v>
   <v>       0.00329724       0.00645883       0.00286735 </v>
   <v>      -0.00071094       0.00530714      -0.02928003 </v>
   <v>      -0.01010245       0.00342404       0.01181492 </v>
   <v>      -0.00172633       0.01413786       0.01228193 </v>
   <v>       0.00053466       0.00332958      -0.00201508 </v>
   <v>      -0.00891762      -0.00358682       0.01927056 </v>
   <v>       0.00015945       0.00558905      -0.05361431 </v>
   <v>      -0.00590883       0.00691705       0.00045098 </v>
   <v>       0.00271286       0.00377682      -0.00354544 </v>
   <v>      -0.00805835       0.00459730       0.00438020 </v>
   <v>       0.00260297       0.00218994      -0.00687714 </v>
   <v>       0.00048950       0.00429434      -0.00962834 </v>
   <v>       0.01165737       0.01464125       0.01604902 </v>
   <v>      -0.00045521       0.00163501       0.00418605 </v>
   <v>       0.00097995      -0.00038836       0.06115489 </v>
   <v>       0.14224366      -0.12693147       0.02946971 </v>
  </varray>
  <varray name="stress" >
   <v>      -3.66305385       0.24506963      -0.27118663 </v>
   <v>       0.24506824      -4.79543737       0.71890893 </v>
   <v>      -0.27118677       0.71890972      -2.73003941 </v>
  </varray>
  <energy>
   <i name="e_fr_energy">   -124.34196795 </i>
   <i name="e_wo_entrp">   -124.22831476 </i>
   <i name="e_0_energy">   -124.28514136 </i>
  </energy>
  <time name="totalsc">  457.47  458.00</time>
 </calculation>
 <calculation>
  <scstep>
   <time name="dav">   20.71   20.71</time>
   <time name="total">   21.41   21.41</time>
   <energy>
    <i name="alphaZ">    325.71046388 </i>
    <i name="ewald"> -10942.19482181 </i>
    <i name="hartreedc">  -1856.51228570 </i>
    <i name="XCdc">  -1761.22001212 </i>
    <i name="pawpsdc">  15132.34004614 </i>
    <i name="pawaedc"> -12857.56604779 </i>
    <i name="eentropy">     -0.11376643 </i>
    <i name="bandstr">  -1272.45124855 </i>
    <i name="atom">  13117.98845597 </i>
    <i name="e_fr_energy">   -114.01921641 </i>
    <i name="e_wo_entrp">   -113.90544998 </i>
    <i name="e_0_energy">   -113.96233320 </i>
   </energy>
  </scstep>
  <scstep>
   <time name="dav">   20.32   20.32</time>
   <time name="total">   21.02   21.02</time>
   <energy>
    <i name="e_fr_energy">   -114.01972256 </i>
    <i name="e_wo_entrp">   -113.90599974 </i>
    <i name="e_0_energy">   -113.96286115 </i>
   </energy>
  </scstep>
  <scstep>
   <time name="dav">   21.10   21.10</time>
   <time name="total">   21.79   21.80</time>
   <energy>
    <i name="e_fr_energy">   -114.01971476 </i>
    <i name="e_wo_entrp">   -113.90600519 </i>
    <i name="e_0_energy">   -113.96285997 </i>
   </energy>
  </scstep>
  <scstep>
   <time name="dav">   20.91   20.91</time>
   <time name="total">   21.59   21.60</time>
   <energy>
    <i name="e_fr_energy">   -114.01970989 </i>
    <i name="e_wo_entrp">   -113.90600242 </i>
    <i name="e_0_energy">   -113.96285615 </i>
   </energy>
  </scstep>
  <scstep>
   <time name="dav">   20.28   20.28</time>
   <time name="total">   20.97   20.97</time>
   <energy>
    <i name="e_fr_energy">   -114.01970751 </i>
    <i name="e_wo_entrp">   -113.90600414 </i>
    <i name="e_0_energy">   -113.96285583 </i>
   </energy>
  </scstep>
  <scstep>
   <time name="dav">   17.01   17.01</time>
   <time name="total">   17.12   17.12</time>
   <energy>
    <i name="alphaZ">    325.71046388 </i>
    <i name="ewald"> -10942.19482181 </i>
    <i name="hartreedc">  -1856.51519708 </i>
    <i name="XCdc">  -1761.21910504 </i>
    <i name="pawpsdc">  15133.07034503 </i>
    <i name="pawaedc"> -12858.29293198 </i>
    <i name="eentropy">     -0.11370106 </i>
    <i name="bandstr">  -1272.45321560 </i>
    <i name="atom">  13117.98845597 </i>
    <i name="e_fr_energy">   -114.01970769 </i>
    <i name="e_wo_entrp">   -113.90600662 </i>
    <i name="e_0_energy">   -113.96285716 </i>
   </energy>
  </scstep>
  <structure>
   <crystal>
    <varray name="basis" >
     <v>      12.57433319       0.00000000       0.00000000 </v>
     <v>       0.00000000      12.57433319       0.00000000 </v>
     <v>       0.00000000       0.00000000      12.57433319 </v>
    </varray>
    <i name="volume">   1988.17629733 </i>
    <varray name="rec_basis" >
     <v>       0.07952708       0.00000000       0.00000000 </v>
     <v>       0.00000000       0.07952708       0.00000000 </v>
     <v>       0.00000000       0.00000000       0.07952708 </v>
    </varray>
   </crystal>
   <varray name="positions" >
    <v>       0.01713351       0.01123685       0.01097344 </v>
    <v>       0.00696640       0.01567937       0.50856210 </v>
    <v>       0.00548243       0.50488496       0.00272037 </v>
    <v>       0.00232613       0.51129844       0.49729175 </v>
    <v>       0.50649760       0.00277271       0.00614894 </v>
    <v>       0.50821805       0.01113689       0.50366938 </v>
    <v>       0.50748162       0.50260558       0.00929242 </v>
    <v>       0.52667063       0.51849835       0.49258193 </v>
    <v>       0.25864096       0.23472444       0.22475346 </v>
    <v>       0.25863655       0.24570061       0.71502242 </v>
    <v>       0.24116395       0.71843485       0.25704904 </v>
    <v>       0.25310736       0.74896801       0.73834757 </v>
    <v>       0.75653849       0.27119311       0.25895037 </v>
    <v>       0.74042069       0.25458979       0.76223091 </v>
    <v>       0.75832597       0.81603229       0.27216654 </v>
    <v>       0.78995308       0.80592902       0.80616438 </v>
    <v>       0.97977333       0.05861792       0.25917443 </v>
    <v>       0.05024163       0.97740304       0.75965008 </v>
    <v>       0.03645284       0.45118324       0.24970816 </v>
    <v>       0.99650039       0.56223593       0.75161220 </v>
    <v>       0.54083032       0.05317416       0.25485193 </v>
    <v>       0.47567944       0.97054409       0.75470729 </v>
    <v>       0.47453359       0.45100881       0.25121775 </v>
    <v>       0.43672849       0.50842514       0.76215980 </v>
    <v>       0.26184823       0.95722764       0.05418871 </v>
    <v>       0.25737143       0.04132187       0.47218966 </v>
    <v>       0.25431415       0.55581051       0.99852886 </v>
    <v>       0.25077592       0.49377617       0.50480732 </v>
    <v>       0.76252657       0.05032944       0.99110300 </v>
    <v>       0.75771534       0.98181073       0.54942691 </v>
    <v>       0.75636655       0.44885054       0.00485511 </v>
    <v>       0.75873954       0.53767078       0.39745692 </v>
    <v>       0.06350788       0.25732530       0.96220710 </v>
    <v>       0.97083228       0.26457724       0.55486206 </v>
    <v>       0.97426599       0.75760753       0.05609240 </v>
    <v>       0.02175659       0.76535167       0.46547005 </v>
    <v>       0.45947397       0.24950738       0.96596400 </v>
    <v>       0.53489719       0.26225298       0.53542514 </v>
    <v>       0.56250034       0.75140364       0.03333028 </v>
    <v>       0.48313188       0.76276761       0.44257001 </v>
    <v>       0.68095898       0.56001381       0.68951580 </v>
   </varray>
  </structure>
  <varray name="forces" >
   <v>      -0.00179373      -0.00054550      -0.00004994 </v>
   <v>       0.00259312       0.00315658      -0.00209574 </v>
   <v>      -0.00804891       0.00401424      -0.00277916 </v>
   <v>      -0.00270708       0.00384818      -0.00586721 </v>
   <v>       0.00004532      -0.00033544      -0.00563485 </v>
   <v>       0.00053569       0.00889678      -0.00059202 </v>
   <v>      -0.00909297      -0.00127257       0.00189130 </v>
   <v>       0.02362731      -0.01343384       0.00856354 </v>
   <v>      -0.00621045      -0.01213303      -0.00856270 </v>
   <v>       0.00385132       0.00558950       0.00598288 </v>
   <v>       0.01974058      -0.01381203       0.00061636 </v>
   <v>      -0.01699236       0.00123954      -0.04886111 </v>
   <v>      -0.00781469      -0.00739797      -0.00199498 </v>
   <v>       0.01739495       0.00612694       0.01103038 </v>
   <v>      -0.00919235       0.01091911      -0.00165294 </v>
   <v>      -0.03043935       0.00749334      -0.00314287 </v>
   <v>       0.00329228       0.00525509       0.00086864 </v>
   <v>      -0.00430931       0.00710318       0.00122357 </v>
   <v>       0.01209149      -0.00079342      -0.00001664 </v>
   <v>      -0.04839324       0.00740676      -0.00480512 </v>
   <v>      -0.00711539      -0.00120400       0.00114624 </v>
   <v>      -0.00106705      -0.01834983      -0.00161939 </v>
   <v>      -0.02043284       0.00743111       0.00489085 </v>
   <v>      -0.01785032       0.04280032      -0.00797673 </v>
   <v>      -0.00268349      -0.00238283       0.00163054 </v>
   <v>       0.00253275       0.00692900       0.00483725 </v>
   <v>      -0.00164429       0.00659636      -0.02599025 </v>
   <v>      -0.00849513       0.00159448       0.01436821 </v>
   <v>      -0.00288961       0.01382834       0.00982540 </v>
   <v>       0.00123345       0.00349576      -0.00185958 </v>
   <v>      -0.00868514      -0.00135174       0.02059087 </v>
   <v>       0.00244569       0.00650052      -0.05140957 </v>
   <v>      -0.00649444       0.00689892       0.00123495 </v>
   <v>       0.00274355       0.00568040      -0.00369936 </v>
   <v>      -0.00796653       0.00542123       0.00391525 </v>
   <v>       0.00397494       0.00301371      -0.00656731 </v>
   <v>       0.00060016       0.00292809      -0.00724850 </v>
   <v>       0.01091218       0.01211035       0.01279436 </v>
   <v>      -0.00173477       0.00137089       0.00502229 </v>
   <v>       0.00113851       0.00563015       0.05664281 </v>
   <v>       0.12330016      -0.13026668       0.02535029 </v>
  </varray>
  <varray name="stress" >
   <v>      -3.71186189       0.22202753      -0.26790321 </v>
   <v>       0.22202806      -4.77313494       0.71977853 </v>
   <v>      -0.26790224       0.71977902      -2.75468288 </v>
  </varray>
  <energy>
   <i name="e_fr_energy">   -124.34465543 </i>
   <i name="e_wo_entrp">   -124.23095437 </i>
   <i name="e_0_energy">   -124.28780490 </i>
  </energy>
  <time name="totalsc">  180.50  180.56</time>
 </calculation>
 <calculation>
  <scstep>
   <time name="dav">   19.77   19.77</time>
   <time name="total">   20.48   20.49</time>
   <energy>
    <i name="alphaZ">    325.71046388 </i>
    <i name="ewald"> -10942.45695372 </i>
    <i name="hartreedc">  -1856.31144672 </i>
    <i name="XCdc">  -1761.23010951 </i>
    <i name="pawpsdc">  15133.06810778 </i>
    <i name="pawaedc"> -12858.29068413 </i>
    <i name="eentropy">     -0.11393921 </i>
    <i name="bandstr">  -1272.38663741 </i>
    <i name="atom">  13117.98845597 </i>
    <i name="e_fr_energy">   -114.02274306 </i>
    <i name="e_wo_entrp">   -113.90880385 </i>
    <i name="e_0_energy">   -113.96577346 </i>
   </energy>
  </scstep>
  <scstep>
   <time name="dav">   20.42   20.42</time>
   <time name="total">   21.12   21.12</time>
   <energy>
    <i name="e_fr_energy">   -114.02615227 </i>
    <i name="e_wo_entrp">   -113.91229415 </i>
    <i name="e_0_energy">   -113.96922321 </i>
   </energy>
  </scstep>
  <scstep>
   <time name="dav">   21.17   21.17</time>
   <time name="total">   21.90   21.90</time>
   <energy>
    <i name="e_fr_energy">   -114.02610586 </i>
    <i name="e_wo_entrp">   -113.91227490 </i>
    <i name="e_0_energy">   -113.96919038 </i>
   </energy>
  </scstep>
  <scstep>
   <time name="dav">   20.88   20.88</time>
   <time name="total">   21.60   21.61</time>
   <energy>
    <i name="e_fr_energy">   -114.02607542 </i>
    <i name="e_wo_entrp">   -113.91225042 </i>
    <i name="e_0_energy">   -113.96916292 </i>
   </energy>
  </scstep>
  <scstep>
   <time name="dav">   20.22   20.22</time>
   <time name="total">   20.95   20.95</time>
   <energy>
    <i name="e_fr_energy">   -114.02605983 </i>
    <i name="e_wo_entrp">   -113.91224328 </i>
    <i name="e_0_energy">   -113.96915155 </i>
   </energy>
  </scstep>
  <scstep>
   <time name="dav">   21.35   21.35</time>
   <time name="total">   22.09   22.09</time>
   <energy>
    <i name="e_fr_energy">   -114.02606090 </i>
    <i name="e_wo_entrp">   -113.91225005 </i>
    <i name="e_0_energy">   -113.96915547 </i>
   </energy>
  </scstep>
  <scstep>
   <time name="dav">   15.70   15.70</time>
   <time name="total">   15.80   15.80</time>
   <energy>
    <i name="alphaZ">    325.71046388 </i>
    <i name="ewald"> -10942.45695372 </i>
    <i name="hartreedc">  -1856.31687977 </i>
    <i name="XCdc">  -1761.22916756 </i>
    <i name="pawpsdc">  15129.86724027 </i>
    <i name="pawaedc"> -12855.08694368 </i>
    <i name="eentropy">     -0.11381001 </i>
    <i name="bandstr">  -1272.38846614 </i>
    <i name="atom">  13117.98845597 </i>
    <i name="e_fr_energy">   -114.02606075 </i>
    <i name="e_wo_entrp">   -113.91225074 </i>
    <i name="e_0_energy">   -113.96915574 </i>
   </energy>
  </scstep>
  <structure>
   <crystal>
    <varray name="basis" >
     <v>      12.57433319       0.00000000       0.00000000 </v>
     <v>       0.00000000      12.57433319       0.00000000 </v>
     <v>       0.00000000       0.00000000      12.57433319 </v>
    </varray>
    <i name="volume">   1988.17629733 </i>
    <varray name="rec_basis" >
     <v>       0.07952708       0.00000000       0.00000000 </v>
     <v>       0.00000000       0.07952708       0.00000000 </v>
     <v>       0.00000000       0.00000000       0.07952708 </v>
    </varray>
   </crystal>
   <varray name="positions" >
    <v>       0.01712004       0.01124173       0.01096227 </v>
    <v>       0.00700017       0.01573280       0.50853584 </v>
    <v>       0.00539571       0.50493254       0.00268352 </v>
    <v>       0.00230207       0.51134170       0.49725314 </v>
    <v>       0.50650734       0.00279757       0.00605441 </v>
    <v>       0.50822727       0.01121779       0.50362101 </v>
    <v>       0.50737447       0.50258525       0.00937315 </v>
    <v>       0.52687007       0.51836178       0.49262007 </v>
    <v>       0.25856334       0.23460027       0.22465111 </v>
    <v>       0.25868329       0.24569293       0.71507589 </v>
    <v>       0.24135526       0.71831584       0.25707569 </v>
    <v>       0.25290860       0.74894856       0.73786713 </v>
    <v>       0.75643328       0.27112165       0.25893070 </v>
    <v>       0.74060680       0.25469291       0.76232906 </v>
    <v>       0.75822081       0.81612391       0.27214482 </v>
    <v>       0.78963710       0.80596334       0.80608683 </v>
    <v>       0.97979564       0.05867008       0.25917986 </v>
    <v>       0.05024220       0.97749623       0.75966174 </v>
    <v>       0.03656473       0.45117083       0.24974730 </v>
    <v>       0.99591782       0.56233709       0.75159498 </v>
    <v>       0.54078360       0.05315482       0.25483988 </v>
    <v>       0.47563539       0.97037085       0.75465571 </v>
    <v>       0.47434080       0.45108214       0.25128013 </v>
    <v>       0.43646902       0.50882731       0.76209787 </v>
    <v>       0.26182269       0.95720236       0.05420089 </v>
    <v>       0.25740588       0.04136011       0.47217221 </v>
    <v>       0.25432651       0.55587915       0.99826312 </v>
    <v>       0.25066607       0.49379752       0.50495587 </v>
    <v>       0.76251645       0.05052456       0.99117963 </v>
    <v>       0.75772365       0.98185139       0.54940953 </v>
    <v>       0.75626394       0.44883220       0.00507771 </v>
    <v>       0.75875491       0.53772114       0.39694484 </v>
    <v>       0.06346106       0.25742464       0.96222697 </v>
    <v>       0.97088506       0.26462732       0.55483039 </v>
    <v>       0.97417938       0.75768010       0.05613956 </v>
    <v>       0.02175658       0.76537270       0.46542686 </v>
    <v>       0.45947874       0.24955729       0.96586853 </v>
    <v>       0.53501056       0.26239616       0.53556736 </v>
    <v>       0.56251498       0.75143125       0.03335299 </v>
    <v>       0.48316884       0.76279166       0.44317196 </v>
    <v>       0.68232468       0.55873848       0.68988947 </v>
   </varray>
  </structure>
  <varray name="forces" >
   <v>       0.00104671      -0.00006985       0.00213134 </v>
   <v>       0.00229553       0.00227499      -0.00306410 </v>
   <v>      -0.00636967       0.00741209       0.00359350 </v>
   <v>      -0.00681353       0.00080557      -0.00806062 </v>
   <v>      -0.00041254      -0.00202062      -0.00825100 </v>
   <v>       0.00154420       0.00667278       0.00189949 </v>
   <v>      -0.00749628      -0.00007263      -0.00792962 </v>
   <v>       0.03424924      -0.00692501       0.02731013 </v>
   <v>      -0.00502065      -0.01176109      -0.00770675 </v>
   <v>       0.00481522       0.00731504       0.00652305 </v>
   <v>       0.02093381      -0.01235126       0.00208980 </v>
   <v>      -0.02018692       0.00143964      -0.05489986 </v>
   <v>      -0.00769684      -0.00971247       0.00111681 </v>
   <v>       0.01928935       0.00096370       0.01393189 </v>
   <v>      -0.00756653       0.01478591      -0.00203346 </v>
   <v>      -0.03060372       0.00629333      -0.00419025 </v>
   <v>       0.00288678       0.00404569       0.00108411 </v>
   <v>      -0.00461507       0.00773651       0.00005606 </v>
   <v>       0.01013631      -0.00027552      -0.00244982 </v>
   <v>      -0.04112258       0.00869454      -0.00572624 </v>
   <v>      -0.00919325      -0.00328128       0.00245093 </v>
   <v>       0.00107887      -0.01795581       0.00493911 </v>
   <v>      -0.01881305       0.00936280       0.00654155 </v>
   <v>       0.01506602       0.04362146      -0.01291301 </v>
   <v>      -0.00027774      -0.00065189       0.00161601 </v>
   <v>       0.00136524       0.00633217       0.00608297 </v>
   <v>      -0.01326452       0.01288189      -0.02982514 </v>
   <v>      -0.00741568      -0.00061140       0.01653449 </v>
   <v>       0.00063852       0.00849951       0.00697452 </v>
   <v>       0.00226913       0.00341575      -0.00144213 </v>
   <v>      -0.00664806      -0.00331157       0.01920618 </v>
   <v>      -0.00154983       0.00918024      -0.04671621 </v>
   <v>      -0.00388884       0.00459188       0.00262897 </v>
   <v>       0.00250506       0.00568873      -0.00136985 </v>
   <v>      -0.00439826       0.00503874       0.00336342 </v>
   <v>       0.00399711       0.00458677      -0.00643449 </v>
   <v>       0.00112787       0.00290645      -0.00427698 </v>
   <v>       0.00853365       0.00936439       0.01153251 </v>
   <v>      -0.00250721       0.00094448       0.00551504 </v>
   <v>      -0.00457721       0.00286131       0.04736749 </v>
   <v>       0.07665934      -0.12871593       0.01280018 </v>
  </varray>
  <varray name="stress" >
   <v>      -3.81490132       0.17569651      -0.26755593 </v>
   <v>       0.17569668      -4.79282395       0.70464288 </v>
   <v>      -0.26755601       0.70464340      -2.81313145 </v>
  </varray>
  <energy>
   <i name="e_fr_energy">   -124.35104172 </i>
   <i name="e_wo_entrp">   -124.23723171 </i>
   <i name="e_0_energy">   -124.29413671 </i>
  </energy>
  <time name="totalsc">  209.90  209.92</time>
 </calculation>
 <calculation>
  <scstep>
   <time name="dav">   19.39   19.39</time>
   <time name="total">   20.11   20.11</time>
   <energy>
    <i name="alphaZ">    325.71046388 </i>
    <i name="ewald"> -10942.68809983 </i>
    <i name="hartreedc">  -1856.15795903 </i>
    <i name="XCdc">  -1761.24259117 </i>
    <i name="pawpsdc">  15129.82375422 </i>
    <i name="pawaedc"> -12855.04335976 </i>
    <i name="eentropy">     -0.11403677 </i>
    <i name="bandstr">  -1272.30301831 </i>
    <i name="atom">  13117.98845597 </i>
    <i name="e_fr_energy">   -114.02639078 </i>
    <i name="e_wo_entrp">   -113.91235401 </i>
    <i name="e_0_energy">   -113.96937239 </i>
   </energy>
  </scstep>
  <scstep>
   <time name="dav">   20.07   20.07</time>
   <time name="total">   20.79   20.79</time>
   <energy>
    <i name="e_fr_energy">   -114.03548388 </i>
    <i name="e_wo_entrp">   -113.92150898 </i>
    <i name="e_0_energy">   -113.97849643 </i>
   </energy>
  </scstep>
  <scstep>
   <time name="dav">   21.14   21.14</time>
   <time name="total">   21.86   21.86</time>
   <energy>
    <i name="e_fr_energy">   -114.03537138 </i>
    <i name="e_wo_entrp">   -113.92142867 </i>
    <i name="e_0_energy">   -113.97840003 </i>
   </energy>
  </scstep>
  <scstep>
   <time name="dav">   20.67   20.67</time>
   <time name="total">   21.39   21.39</time>
   <energy>
    <i name="e_fr_energy">   -114.03529043 </i>
    <i name="e_wo_entrp">   -113.92135879 </i>
    <i name="e_0_energy">   -113.97832461 </i>
   </energy>
  </scstep>
  <scstep>
   <time name="dav">   20.54   20.54</time>
   <time name="total">   21.26   21.27</time>
   <energy>
    <i name="e_fr_energy">   -114.03525451 </i>
    <i name="e_wo_entrp">   -113.92133270 </i>
    <i name="e_0_energy">   -113.97829361 </i>
   </energy>
  </scstep>
  <scstep>
   <time name="dav">   21.48   21.49</time>
   <time name="total">   22.22   22.22</time>
   <energy>
    <i name="e_fr_energy">   -114.03525692 </i>
    <i name="e_wo_entrp">   -113.92134134 </i>
    <i name="e_0_energy">   -113.97829913 </i>
   </energy>
  </scstep>
  <scstep>
   <time name="dav">   16.69   16.69</time>
   <time name="total">   16.79   16.79</time>
   <energy>
    <i name="alphaZ">    325.71046388 </i>
    <i name="ewald"> -10942.68809983 </i>
    <i name="hartreedc">  -1856.15905074 </i>
    <i name="XCdc">  -1761.24165491 </i>
    <i name="pawpsdc">  15126.13392582 </i>
    <i name="pawaedc"> -12851.34983179 </i>
    <i name="eentropy">     -0.11391465 </i>
    <i name="bandstr">  -1272.31555066 </i>
    <i name="atom">  13117.98845597 </i>
    <i name="e_fr_energy">   -114.03525689 </i>
    <i name="e_wo_entrp">   -113.92134225 </i>
    <i name="e_0_energy">   -113.97829957 </i>
   </energy>
  </scstep>
  <structure>
   <crystal>
    <varray name="basis" >
     <v>      12.57433319       0.00000000       0.00000000 </v>
     <v>       0.00000000      12.57433319       0.00000000 </v>
     <v>       0.00000000       0.00000000      12.57433319 </v>
    </varray>
    <i name="volume">   1988.17629733 </i>
    <varray name="rec_basis" >
     <v>       0.07952708       0.00000000       0.00000000 </v>
     <v>       0.00000000       0.07952708       0.00000000 </v>
     <v>       0.00000000       0.00000000       0.07952708 </v>
    </varray>
   </crystal>
   <varray name="positions" >
    <v>       0.01711526       0.01124385       0.01097083 </v>
    <v>       0.00704972       0.01580087       0.50848697 </v>
    <v>       0.00526237       0.50503753       0.00267871 </v>
    <v>       0.00222260       0.51138910       0.49714872 </v>
    <v>       0.50650969       0.00280314       0.00590250 </v>
    <v>       0.50824865       0.01134860       0.50359595 </v>
    <v>       0.50721418       0.50256460       0.00937851 </v>
    <v>       0.52733998       0.51817627       0.49288167 </v>
    <v>       0.25845081       0.23438614       0.22449388 </v>
    <v>       0.25876610       0.24575495       0.71518135 </v>
    <v>       0.24171021       0.71809727       0.25711402 </v>
    <v>       0.25255697       0.74894668       0.73696062 </v>
    <v>       0.75627311       0.27097337       0.25892147 </v>
    <v>       0.74094070       0.25479176       0.76253808 </v>
    <v>       0.75806028       0.81633503       0.27210778 </v>
    <v>       0.78908777       0.80605225       0.80598519 </v>
    <v>       0.97984198       0.05875296       0.25919411 </v>
    <v>       0.05019862       0.97764580       0.75967330 </v>
    <v>       0.03675592       0.45115690       0.24976029 </v>
    <v>       0.99504581       0.56250312       0.75153017 </v>
    <v>       0.54066023       0.05311028       0.25485199 </v>
    <v>       0.47561030       0.97005904       0.75465206 </v>
    <v>       0.47400105       0.45122986       0.25139009 </v>
    <v>       0.43635236       0.50957319       0.76193221 </v>
    <v>       0.26179512       0.95717266       0.05422627 </v>
    <v>       0.25744885       0.04145295       0.47221453 </v>
    <v>       0.25422503       0.55604876       0.99776416 </v>
    <v>       0.25050368       0.49381310       0.50523058 </v>
    <v>       0.76251021       0.05077028       0.99131432 </v>
    <v>       0.75775038       0.98191698       0.54938080 </v>
    <v>       0.75611452       0.44878658       0.00544346 </v>
    <v>       0.75875637       0.53784661       0.39607445 </v>
    <v>       0.06338236       0.25755172       0.96226583 </v>
    <v>       0.97095183       0.26472128       0.55478820 </v>
    <v>       0.97406220       0.75778683       0.05621070 </v>
    <v>       0.02179490       0.76543127       0.46532923 </v>
    <v>       0.45949287       0.24962604       0.96574491 </v>
    <v>       0.53518794       0.26260700       0.53579703 </v>
    <v>       0.56250417       0.75146295       0.03342352 </v>
    <v>       0.48316198       0.76283886       0.44412886 </v>
    <v>       0.68424102       0.55646932       0.69033269 </v>
   </varray>
  </structure>
  <varray name="forces" >
   <v>       0.00123516      -0.00107990       0.00108036 </v>
   <v>       0.00248199       0.00380590      -0.00273782 </v>
   <v>      -0.01039417       0.00743661       0.00419128 </v>
   <v>      -0.01439209      -0.00085856      -0.01613545 </v>
   <v>      -0.00362002      -0.00012316      -0.00936478 </v>
   <v>       0.00323980       0.00778320       0.00415839 </v>
   <v>      -0.00509865       0.00234517      -0.01412397 </v>
   <v>       0.04085149       0.00630166       0.03409095 </v>
   <v>      -0.00272545      -0.00739988      -0.00452531 </v>
   <v>       0.00382376       0.00700742       0.00633936 </v>
   <v>       0.02248224      -0.01091702      -0.00062043 </v>
   <v>      -0.01653937       0.00134359      -0.05038498 </v>
   <v>      -0.00488814      -0.01121971      -0.00030552 </v>
   <v>       0.01789100      -0.00869165       0.01282953 </v>
   <v>      -0.00757564       0.01476582       0.00000745 </v>
   <v>      -0.03506425      -0.00008194      -0.00567510 </v>
   <v>       0.00336814       0.00164879      -0.00120799 </v>
   <v>      -0.00384744       0.00765255      -0.00189788 </v>
   <v>       0.01128924       0.00049328      -0.00770120 </v>
   <v>      -0.02328770       0.00942703       0.00249379 </v>
   <v>      -0.01091060      -0.00085387      -0.00178409 </v>
   <v>       0.00117367      -0.01596787       0.00407691 </v>
   <v>      -0.02121202       0.01213487       0.01031255 </v>
   <v>       0.03865836       0.03828826      -0.00954434 </v>
   <v>       0.00213619       0.00007799       0.00012024 </v>
   <v>       0.00165307       0.00587537       0.00710799 </v>
   <v>      -0.01658330       0.01045094      -0.02730264 </v>
   <v>      -0.00455940       0.00035364       0.01516202 </v>
   <v>      -0.00516303       0.00712236       0.00996335 </v>
   <v>       0.00202501       0.00155011      -0.00191355 </v>
   <v>      -0.00595874      -0.00566428       0.02011696 </v>
   <v>      -0.00780934       0.01000513      -0.03172048 </v>
   <v>      -0.00166886       0.00354619      -0.00065277 </v>
   <v>      -0.00036409       0.00372814      -0.00275221 </v>
   <v>      -0.00650069       0.00568783       0.00230391 </v>
   <v>       0.00492982       0.00494130      -0.00400930 </v>
   <v>       0.00084963      -0.00034801      -0.00102585 </v>
   <v>       0.00704601       0.00062814       0.01131926 </v>
   <v>      -0.00263689       0.00422434       0.00354799 </v>
   <v>      -0.00157678       0.00115895       0.04254819 </v>
   <v>       0.04724210      -0.11657873       0.00361522 </v>
  </varray>
  <varray name="stress" >
   <v>      -3.93454680       0.12867880      -0.26651110 </v>
   <v>       0.12867828      -4.76970207       0.66663186 </v>
   <v>      -0.26651029       0.66663175      -2.91541267 </v>
  </varray>
  <energy>
   <i name="e_fr_energy">   -124.36028227 </i>
   <i name="e_wo_entrp">   -124.24636762 </i>
   <i name="e_0_energy">   -124.30332495 </i>
  </energy>
  <time name="totalsc">  201.60  201.77</time>
 </calculation>
 <calculation>
  <scstep>
   <time name="dav">   19.08   19.08</time>
   <time name="total">   19.82   19.82</time>
   <energy>
    <i name="alphaZ">    325.71046388 </i>
    <i name="ewald"> -10942.71259983 </i>
    <i name="hartreedc">  -1856.17756190 </i>
    <i name="XCdc">  -1761.24796810 </i>
    <i name="pawpsdc">  15126.08424112 </i>
    <i name="pawaedc"> -12851.30003524 </i>
    <i name="eentropy">     -0.11381923 </i>
    <i name="bandstr">  -1272.26623183 </i>
    <i name="atom">  13117.98845597 </i>
    <i name="e_fr_energy">   -114.03505515 </i>
    <i name="e_wo_entrp">   -113.92123592 </i>
    <i name="e_0_energy">   -113.97814553 </i>
   </energy>
  </scstep>
  <scstep>
   <time name="dav">   20.13   20.13</time>
   <time name="total">   20.87   20.87</time>
   <energy>
    <i name="e_fr_energy">   -114.04366280 </i>
    <i name="e_wo_entrp">   -113.92978831 </i>
    <i name="e_0_energy">   -113.98672556 </i>
   </energy>
  </scstep>
  <scstep>
   <time name="dav">   21.02   21.02</time>
   <time name="total">   21.76   21.76</time>
   <energy>
    <i name="e_fr_energy">   -114.04355403 </i>
    <i name="e_wo_entrp">   -113.92968601 </i>
    <i name="e_0_energy">   -113.98662002 </i>
   </energy>
  </scstep>
  <scstep>
   <time name="dav">   20.67   20.67</time>
   <time name="total">   21.41   21.41</time>
   <energy>
    <i name="e_fr_energy">   -114.04348419 </i>
    <i name="e_wo_entrp">   -113.92962406 </i>
    <i name="e_0_energy">   -113.98655412 </i>
   </energy>
  </scstep>
  <scstep>
   <time name="dav">   20.43   20.43</time>
   <time name="total">   21.16   21.16</time>
   <energy>
    <i name="e_fr_energy">   -114.04344286 </i>
    <i name="e_wo_entrp">   -113.92958547 </i>
    <i name="e_0_energy">   -113.98651417 </i>
   </energy>
  </scstep>
  <scstep>
   <time name="dav">   21.41   21.41</time>
   <time name="total">   22.14   22.14</time>
   <energy>
    <i name="e_fr_energy">   -114.04344608 </i>
    <i name="e_wo_entrp">   -113.92958651 </i>
    <i name="e_0_energy">   -113.98651630 </i>
   </energy>
  </scstep>
  <scstep>
   <time name="dav">   14.55   14.55</time>
   <time name="total">   14.66   14.66</time>
   <energy>
    <i name="alphaZ">    325.71046388 </i>
    <i name="ewald"> -10942.71259983 </i>
    <i name="hartreedc">  -1856.16951739 </i>
    <i name="XCdc">  -1761.24803776 </i>
    <i name="pawpsdc">  15124.75767566 </i>
    <i name="pawaedc"> -12849.97119208 </i>
    <i name="eentropy">     -0.11386071 </i>
    <i name="bandstr">  -1272.28483394 </i>
    <i name="atom">  13117.98845597 </i>
    <i name="e_fr_energy">   -114.04344619 </i>
    <i name="e_wo_entrp">   -113.92958548 </i>
    <i name="e_0_energy">   -113.98651584 </i>
   </energy>
  </scstep>
  <structure>
   <crystal>
    <varray name="basis" >
     <v>      12.57433319       0.00000000       0.00000000 </v>
     <v>       0.00000000      12.57433319       0.00000000 </v>
     <v>       0.00000000       0.00000000      12.57433319 </v>
    </varray>
    <i name="volume">   1988.17629733 </i>
    <varray name="rec_basis" >
     <v>       0.07952708       0.00000000       0.00000000 </v>
     <v>       0.00000000       0.07952708       0.00000000 </v>
     <v>       0.00000000       0.00000000       0.07952708 </v>
    </varray>
   </crystal>
   <varray name="positions" >
    <v>       0.01714913       0.01126452       0.01097361 </v>
    <v>       0.00711821       0.01588368       0.50841347 </v>
    <v>       0.00507469       0.50519826       0.00274267 </v>
    <v>       0.00201792       0.51138990       0.49692894 </v>
    <v>       0.50652295       0.00281037       0.00563955 </v>
    <v>       0.50829779       0.01150051       0.50357241 </v>
    <v>       0.50704736       0.50260670       0.00925850 </v>
    <v>       0.52808571       0.51816904       0.49346454 </v>
    <v>       0.25833965       0.23420342       0.22432983 </v>
    <v>       0.25886238       0.24573885       0.71528442 </v>
    <v>       0.24210516       0.71794525       0.25719452 </v>
    <v>       0.25219093       0.74889145       0.73593634 </v>
    <v>       0.75610812       0.27077840       0.25891502 </v>
    <v>       0.74130832       0.25481895       0.76277067 </v>
    <v>       0.75788965       0.81657695       0.27208834 </v>
    <v>       0.78842726       0.80603096       0.80578869 </v>
    <v>       0.97988047       0.05880201       0.25918812 </v>
    <v>       0.05022356       0.97783259       0.75965273 </v>
    <v>       0.03693469       0.45115697       0.24971988 </v>
    <v>       0.99415062       0.56270427       0.75153317 </v>
    <v>       0.54051829       0.05306087       0.25479671 </v>
    <v>       0.47549837       0.96972889       0.75466092 </v>
    <v>       0.47364896       0.45141648       0.25160439 </v>
    <v>       0.43680916       0.51023920       0.76174190 </v>
    <v>       0.26183419       0.95717454       0.05423177 </v>
    <v>       0.25749373       0.04149456       0.47219746 </v>
    <v>       0.25400128       0.55629615       0.99725064 </v>
    <v>       0.25034876       0.49380766       0.50556489 </v>
    <v>       0.76248795       0.05107495       0.99140742 </v>
    <v>       0.75778712       0.98197919       0.54935588 </v>
    <v>       0.75595066       0.44871389       0.00587191 </v>
    <v>       0.75866430       0.53798819       0.39534174 </v>
    <v>       0.06337086       0.25770953       0.96230479 </v>
    <v>       0.97103087       0.26481340       0.55476451 </v>
    <v>       0.97393710       0.75794960       0.05628775 </v>
    <v>       0.02178912       0.76550756       0.46529568 </v>
    <v>       0.45950310       0.24968925       0.96566455 </v>
    <v>       0.53534116       0.26272310       0.53601636 </v>
    <v>       0.56252197       0.75155921       0.03344839 </v>
    <v>       0.48317824       0.76285895       0.44504756 </v>
    <v>       0.68552642       0.55416511       0.69074933 </v>
   </varray>
  </structure>
  <varray name="forces" >
   <v>      -0.00118665      -0.00103340      -0.00144726 </v>
   <v>       0.00185319      -0.00181441      -0.00166221 </v>
   <v>      -0.00901330       0.00761638       0.00247612 </v>
   <v>      -0.01275662      -0.00454511      -0.01714840 </v>
   <v>      -0.00583480       0.00181685      -0.00660530 </v>
   <v>       0.00601245       0.00823712       0.00360926 </v>
   <v>      -0.00550808      -0.00069636      -0.00196102 </v>
   <v>       0.03127372       0.00326271       0.01853735 </v>
   <v>       0.00250501      -0.00221952      -0.00545360 </v>
   <v>       0.00340360       0.00902118       0.00529407 </v>
   <v>       0.02081541      -0.00947428      -0.00419891 </v>
   <v>      -0.01397608       0.00093345      -0.04556966 </v>
   <v>      -0.00670157      -0.01302771       0.00013285 </v>
   <v>       0.01898328      -0.01535411       0.01413362 </v>
   <v>      -0.00668735       0.01555417       0.00157129 </v>
   <v>      -0.03687448      -0.00855119      -0.00871449 </v>
   <v>       0.00449036       0.00158877      -0.00024343 </v>
   <v>      -0.01037725       0.00868952      -0.00683174 </v>
   <v>       0.00665270       0.00178087      -0.00718791 </v>
   <v>      -0.00560206       0.01219891       0.00067340 </v>
   <v>      -0.01208612      -0.00407208       0.00192903 </v>
   <v>       0.00047591      -0.01442515      -0.00003178 </v>
   <v>      -0.01499535       0.01621063       0.00936533 </v>
   <v>       0.04453489       0.03132180      -0.00780615 </v>
   <v>      -0.00035354      -0.00018415       0.00032134 </v>
   <v>       0.00262210       0.00891819       0.00557920 </v>
   <v>      -0.01378619       0.00736999      -0.02588439 </v>
   <v>      -0.00776361       0.01047470       0.01523668 </v>
   <v>      -0.00898548      -0.00461293       0.01150095 </v>
   <v>       0.00104786      -0.00008334      -0.00117996 </v>
   <v>      -0.00551646       0.00246151       0.02536772 </v>
   <v>      -0.00350769       0.00549596      -0.03080748 </v>
   <v>      -0.00277494       0.00334346       0.00295097 </v>
   <v>      -0.00358169       0.00698567      -0.00318711 </v>
   <v>      -0.00694830       0.00459002       0.00079362 </v>
   <v>       0.00663046       0.00165976      -0.00339430 </v>
   <v>       0.00349649       0.00625000      -0.00145662 </v>
   <v>       0.00498432      -0.00209804       0.01030649 </v>
   <v>      -0.00354532      -0.00120476       0.00349358 </v>
   <v>      -0.00057670      -0.00492401       0.03936534 </v>
   <v>       0.03915789      -0.08746106       0.00813354 </v>
  </varray>
  <varray name="stress" >
   <v>      -4.01959012       0.10850236      -0.25690307 </v>
   <v>       0.10850212      -4.77798619       0.65197115 </v>
   <v>      -0.25690226       0.65197078      -3.00836739 </v>
  </varray>
  <energy>
   <i name="e_fr_energy">   -124.36857222 </i>
   <i name="e_wo_entrp">   -124.25471152 </i>
   <i name="e_0_energy">   -124.31164187 </i>
  </energy>
  <time name="totalsc">  193.24  193.50</time>
 </calculation>
 <calculation>
  <scstep>
   <time name="dav">   19.93   19.93</time>
   <time name="total">   20.63   20.63</time>
   <energy>
    <i name="alphaZ">    325.71046388 </i>
    <i name="ewald"> -10942.67394963 </i>
    <i name="hartreedc">  -1856.19618534 </i>
    <i name="XCdc">  -1761.24563166 </i>
    <i name="pawpsdc">  15124.71588717 </i>
    <i name="pawaedc"> -12849.92932184 </i>
    <i name="eentropy">     -0.11377401 </i>
    <i name="bandstr">  -1272.29851923 </i>
    <i name="atom">  13117.98845597 </i>
    <i name="e_fr_energy">   -114.04257467 </i>
    <i name="e_wo_entrp">   -113.92880067 </i>
    <i name="e_0_energy">   -113.98568767 </i>
   </energy>
  </scstep>
  <scstep>
   <time name="dav">   20.55   20.55</time>
   <time name="total">   21.24   21.24</time>
   <energy>
    <i name="e_fr_energy">   -114.04273375 </i>
    <i name="e_wo_entrp">   -113.92893198 </i>
    <i name="e_0_energy">   -113.98583287 </i>
   </energy>
  </scstep>
  <scstep>
   <time name="dav">   21.05   21.05</time>
   <time name="total">   21.79   21.79</time>
   <energy>
    <i name="e_fr_energy">   -114.04273204 </i>
    <i name="e_wo_entrp">   -113.92892451 </i>
    <i name="e_0_energy">   -113.98582828 </i>
   </energy>
  </scstep>
  <scstep>
   <time name="dav">   17.13   17.14</time>
   <time name="total">   17.86   17.86</time>
   <energy>
    <i name="e_fr_energy">   -114.04273083 </i>
    <i name="e_wo_entrp">   -113.92892321 </i>
    <i name="e_0_energy">   -113.98582702 </i>
   </energy>
  </scstep>
  <scstep>
   <time name="dav">   18.32   18.32</time>
   <time name="total">   18.43   18.43</time>
   <energy>
    <i name="alphaZ">    325.71046388 </i>
    <i name="ewald"> -10942.67394963 </i>
    <i name="hartreedc">  -1856.19519427 </i>
    <i name="XCdc">  -1761.24584400 </i>
    <i name="pawpsdc">  15125.48822449 </i>
    <i name="pawaedc"> -12850.70221735 </i>
    <i name="eentropy">     -0.11380957 </i>
    <i name="bandstr">  -1272.29885968 </i>
    <i name="atom">  13117.98845597 </i>
    <i name="e_fr_energy">   -114.04273016 </i>
    <i name="e_wo_entrp">   -113.92892058 </i>
    <i name="e_0_energy">   -113.98582537 </i>
   </energy>
  </scstep>
  <structure>
   <crystal>
    <varray name="basis" >
     <v>      12.57433319       0.00000000       0.00000000 </v>
     <v>       0.00000000      12.57433319       0.00000000 </v>
     <v>       0.00000000       0.00000000      12.57433319 </v>
    </varray>
    <i name="volume">   1988.17629733 </i>
    <varray name="rec_basis" >
     <v>       0.07952708       0.00000000       0.00000000 </v>
     <v>       0.00000000       0.07952708       0.00000000 </v>
     <v>       0.00000000       0.00000000       0.07952708 </v>
    </varray>
   </crystal>
   <varray name="positions" >
    <v>       0.01715755       0.01127540       0.01096438 </v>
    <v>       0.00711963       0.01587194       0.50841204 </v>
    <v>       0.00507826       0.50520504       0.00275489 </v>
    <v>       0.00200637       0.51136865       0.49691989 </v>
    <v>       0.50653265       0.00281592       0.00561958 </v>
    <v>       0.50830584       0.01149352       0.50356017 </v>
    <v>       0.50705168       0.50262088       0.00926978 </v>
    <v>       0.52808754       0.51820833       0.49348303 </v>
    <v>       0.25835201       0.23423645       0.22433226 </v>
    <v>       0.25885843       0.24569486       0.71526809 </v>
    <v>       0.24207127       0.71799492       0.25720880 </v>
    <v>       0.25223235       0.74886378       0.73599156 </v>
    <v>       0.75610964       0.27077978       0.25891431 </v>
[...]
       <r>    0.4524    1.0000 </r>
       <r>    0.4733    1.0000 </r>
       <r>    0.4900    1.0000 </r>
       <r>    0.5091    1.0000 </r>
       <r>    0.5193    1.0000 </r>
       <r>    0.5514    1.0000 </r>
       <r>    0.6039    1.0000 </r>
       <r>    0.6474    1.0000 </r>
       <r>    0.8457    1.0000 </r>
       <r>    1.4755    0.4631 </r>
       <r>    3.8363    0.0000 </r>
       <r>    3.8664    0.0000 </r>
       <r>    3.8833    0.0000 </r>
       <r>    3.9478    0.0000 </r>
       <r>    4.0312    0.0000 </r>
       <r>    4.0446    0.0000 </r>
       <r>    4.0908    0.0000 </r>
       <r>    4.1160    0.0000 </r>
       <r>    4.1629    0.0000 </r>
       <r>    4.1950    0.0000 </r>
       <r>    4.2286    0.0000 </r>
       <r>    4.4086    0.0000 </r>
       <r>    5.0226    0.0000 </r>
       <r>    5.0881    0.0000 </r>
       <r>    5.1060    0.0000 </r>
       <r>    5.1785    0.0000 </r>
       <r>    5.2217    0.0000 </r>
       <r>    5.2553    0.0000 </r>
       <r>    5.3003    0.0000 </r>
       <r>    5.3290    0.0000 </r>
       <r>    5.3602    0.0000 </r>
       <r>    5.4024    0.0000 </r>
       <r>    5.4652    0.0000 </r>
       <r>    5.5400    0.0000 </r>
       <r>    5.8918    0.0000 </r>
       <r>    6.0284    0.0000 </r>
       <r>    6.1655    0.0000 </r>
       <r>    6.2009    0.0000 </r>
       <r>    6.2140    0.0000 </r>
       <r>    6.2468    0.0000 </r>
      </set>
     </set>
    </set>
   </array>
  </eigenvalues>
  <separator name="orbital magnetization" >
   <v name="MAGDIPOLOUT">      0.00000000      0.00000000      0.00000000</v>
  </separator>
  <dos>
   <i name="efermi">      1.46239899 </i>
   <total>
    <array>
     <dimension dim="1">gridpoints</dimension>
     <dimension dim="2">spin</dimension>
     <field>energy</field>
     <field>total</field>
     <field>integrated</field>
     <set>
      <set comment="spin 1">
       <r>   -21.5612     0.0000     0.0000 </r>
       <r>   -21.4615     0.0000     0.0000 </r>
       <r>   -21.3618     0.0000     0.0000 </r>
       <r>   -21.2621     0.0000     0.0000 </r>
       <r>   -21.1624     0.0000     0.0000 </r>
       <r>   -21.0627     0.0000     0.0000 </r>
       <r>   -20.9630     0.0000     0.0000 </r>
       <r>   -20.8633     0.0000     0.0000 </r>
       <r>   -20.7635     0.0000     0.0000 </r>
       <r>   -20.6638     0.0000     0.0000 </r>
       <r>   -20.5641     0.0000     0.0000 </r>
       <r>   -20.4644     0.0000     0.0000 </r>
       <r>   -20.3647     0.0000     0.0000 </r>
       <r>   -20.2650     0.0000     0.0000 </r>
       <r>   -20.1653     0.0004     0.0000 </r>
       <r>   -20.0656     0.0079     0.0008 </r>
       <r>   -19.9659     0.1042     0.0112 </r>
       <r>   -19.8662     0.8698     0.0979 </r>
       <r>   -19.7664     4.5858     0.5552 </r>
       <r>   -19.6667    15.2911     2.0799 </r>
       <r>   -19.5670    32.2694     5.2975 </r>
       <r>   -19.4673    43.1133     9.5964 </r>
       <r>   -19.3676    36.4670    13.2325 </r>
       <r>   -19.2679    19.5220    15.1791 </r>
       <r>   -19.1682     6.6103    15.8382 </r>
       <r>   -19.0685     1.4145    15.9792 </r>
       <r>   -18.9688     0.1911    15.9983 </r>
       <r>   -18.8690     0.0163    15.9999 </r>
       <r>   -18.7693     0.0009    16.0000 </r>
       <r>   -18.6696     0.0000    16.0000 </r>
       <r>   -18.5699     0.0000    16.0000 </r>
       <r>   -18.4702     0.0000    16.0000 </r>
       <r>   -18.3705     0.0000    16.0000 </r>
       <r>   -18.2708     0.0000    16.0000 </r>
       <r>   -18.1711     0.0000    16.0000 </r>
       <r>   -18.0714     0.0000    16.0000 </r>
       <r>   -17.9716     0.0000    16.0000 </r>
       <r>   -17.8719     0.0000    16.0000 </r>
       <r>   -17.7722     0.0000    16.0000 </r>
       <r>   -17.6725     0.0000    16.0000 </r>
       <r>   -17.5728     0.0000    16.0000 </r>
       <r>   -17.4731     0.0000    16.0000 </r>
       <r>   -17.3734     0.0000    16.0000 </r>
       <r>   -17.2737     0.0000    16.0000 </r>
       <r>   -17.1740     0.0000    16.0000 </r>
       <r>   -17.0742     0.0000    16.0000 </r>
       <r>   -16.9745     0.0000    16.0000 </r>
       <r>   -16.8748     0.0000    16.0000 </r>
       <r>   -16.7751     0.0000    16.0000 </r>
       <r>   -16.6754     0.0000    16.0000 </r>
       <r>   -16.5757     0.0000    16.0000 </r>
       <r>   -16.4760     0.0000    16.0000 </r>
       <r>   -16.3763     0.0000    16.0000 </r>
       <r>   -16.2766     0.0000    16.0000 </r>
       <r>   -16.1768     0.0000    16.0000 </r>
       <r>   -16.0771     0.0000    16.0000 </r>
       <r>   -15.9774     0.0000    16.0000 </r>
       <r>   -15.8777     0.0000    16.0000 </r>
       <r>   -15.7780     0.0000    16.0000 </r>
       <r>   -15.6783     0.0000    16.0000 </r>
       <r>   -15.5786     0.0000    16.0000 </r>
       <r>   -15.4789     0.0000    16.0000 </r>
       <r>   -15.3792     0.0000    16.0000 </r>
       <r>   -15.2795     0.0000    16.0000 </r>
       <r>   -15.1797     0.0000    16.0000 </r>
       <r>   -15.0800     0.0000    16.0000 </r>
       <r>   -14.9803     0.0000    16.0000 </r>
       <r>   -14.8806     0.0000    16.0000 </r>
       <r>   -14.7809     0.0000    16.0000 </r>
       <r>   -14.6812     0.0000    16.0000 </r>
       <r>   -14.5815     0.0000    16.0000 </r>
       <r>   -14.4818     0.0000    16.0000 </r>
       <r>   -14.3821     0.0000    16.0000 </r>
       <r>   -14.2823     0.0000    16.0000 </r>
       <r>   -14.1826     0.0000    16.0000 </r>
       <r>   -14.0829     0.0000    16.0000 </r>
       <r>   -13.9832     0.0000    16.0000 </r>
       <r>   -13.8835     0.0000    16.0000 </r>
       <r>   -13.7838     0.0000    16.0000 </r>
       <r>   -13.6841     0.0000    16.0000 </r>
       <r>   -13.5844     0.0000    16.0000 </r>
       <r>   -13.4847     0.0000    16.0000 </r>
       <r>   -13.3849     0.0000    16.0000 </r>
       <r>   -13.2852     0.0000    16.0000 </r>
       <r>   -13.1855     0.0000    16.0000 </r>
       <r>   -13.0858     0.0000    16.0000 </r>
       <r>   -12.9861     0.0000    16.0000 </r>
       <r>   -12.8864     0.0000    16.0000 </r>
       <r>   -12.7867     0.0000    16.0000 </r>
       <r>   -12.6870     0.0000    16.0000 </r>
       <r>   -12.5873     0.0000    16.0000 </r>
       <r>   -12.4875     0.0000    16.0000 </r>
       <r>   -12.3878     0.0000    16.0000 </r>
       <r>   -12.2881     0.0000    16.0000 </r>
       <r>   -12.1884     0.0000    16.0000 </r>
       <r>   -12.0887     0.0000    16.0000 </r>
       <r>   -11.9890     0.0000    16.0000 </r>
       <r>   -11.8893     0.0000    16.0000 </r>
       <r>   -11.7896     0.0000    16.0000 </r>
       <r>   -11.6899     0.0000    16.0000 </r>
       <r>   -11.5902     0.0000    16.0000 </r>
       <r>   -11.4904     0.0001    16.0000 </r>
       <r>   -11.3907     0.0012    16.0001 </r>
       <r>   -11.2910     0.0165    16.0018 </r>
       <r>   -11.1913     0.1380    16.0155 </r>
       <r>   -11.0916     0.7225    16.0876 </r>
       <r>   -10.9919     2.4100    16.3279 </r>
       <r>   -10.8922     5.3925    16.8656 </r>
       <r>   -10.7925     9.1834    17.7812 </r>
       <r>   -10.6928    14.4787    19.2249 </r>
       <r>   -10.5930    23.1038    21.5286 </r>
       <r>   -10.4933    35.0927    25.0277 </r>
       <r>   -10.3936    49.8638    29.9997 </r>
       <r>   -10.2939    67.5616    36.7363 </r>
       <r>   -10.1942    82.6767    44.9801 </r>
       <r>   -10.0945    83.0264    53.2587 </r>
       <r>    -9.9948    64.4021    59.6803 </r>
       <r>    -9.8951    38.0884    63.4781 </r>
       <r>    -9.7954    17.3458    65.2077 </r>
       <r>    -9.6956     6.0606    65.8120 </r>
       <r>    -9.5959     1.5654    65.9681 </r>
       <r>    -9.4962     0.2830    65.9963 </r>
       <r>    -9.3965     0.0341    65.9997 </r>
       <r>    -9.2968     0.0027    66.0000 </r>
       <r>    -9.1971     0.0001    66.0000 </r>
       <r>    -9.0974     0.0000    66.0000 </r>
       <r>    -8.9977     0.0000    66.0000 </r>
       <r>    -8.8980     0.0000    66.0000 </r>
       <r>    -8.7982     0.0000    66.0000 </r>
       <r>    -8.6985     0.0000    66.0000 </r>
       <r>    -8.5988     0.0000    66.0000 </r>
       <r>    -8.4991     0.0000    66.0000 </r>
       <r>    -8.3994     0.0000    66.0000 </r>
       <r>    -8.2997     0.0000    66.0000 </r>
       <r>    -8.2000     0.0000    66.0000 </r>
       <r>    -8.1003     0.0000    66.0000 </r>
       <r>    -8.0006     0.0000    66.0000 </r>
       <r>    -7.9008     0.0000    66.0000 </r>
       <r>    -7.8011     0.0000    66.0000 </r>
       <r>    -7.7014     0.0000    66.0000 </r>
       <r>    -7.6017     0.0000    66.0000 </r>
       <r>    -7.5020     0.0000    66.0000 </r>
       <r>    -7.4023     0.0004    66.0000 </r>
       <r>    -7.3026     0.0045    66.0005 </r>
       <r>    -7.2029     0.0360    66.0041 </r>
       <r>    -7.1032     0.1967    66.0237 </r>
       <r>    -7.0035     0.7564    66.0991 </r>
       <r>    -6.9037     2.1188    66.3104 </r>
       <r>    -6.8040     4.7064    66.7797 </r>
       <r>    -6.7043    10.0228    67.7790 </r>
       <r>    -6.6046    24.2269    70.1947 </r>
       <r>    -6.5049    58.0542    75.9834 </r>
       <r>    -6.4052   109.1026    86.8621 </r>
       <r>    -6.3055   143.4405   101.1646 </r>
       <r>    -6.2058   128.4527   113.9728 </r>
       <r>    -6.1061    80.8810   122.0375 </r>
       <r>    -6.0063    40.1435   126.0402 </r>
       <r>    -5.9066    19.3361   127.9683 </r>
       <r>    -5.8069    10.3396   128.9992 </r>
       <r>    -5.7072     5.6663   129.5642 </r>
       <r>    -5.6075     2.7896   129.8424 </r>
       <r>    -5.5078     1.1293   129.9550 </r>
       <r>    -5.4081     0.3541   129.9903 </r>
       <r>    -5.3084     0.0822   129.9985 </r>
       <r>    -5.2087     0.0136   129.9998 </r>
       <r>    -5.1089     0.0015   130.0000 </r>
       <r>    -5.0092     0.0001   130.0000 </r>
       <r>    -4.9095     0.0000   130.0000 </r>
       <r>    -4.8098     0.0000   130.0000 </r>
       <r>    -4.7101     0.0000   130.0000 </r>
       <r>    -4.6104     0.0000   130.0000 </r>
       <r>    -4.5107     0.0000   130.0000 </r>
       <r>    -4.4110     0.0000   130.0000 </r>
       <r>    -4.3113     0.0000   130.0000 </r>
       <r>    -4.2115     0.0000   130.0000 </r>
       <r>    -4.1118     0.0000   130.0000 </r>
       <r>    -4.0121     0.0000   130.0000 </r>
       <r>    -3.9124     0.0000   130.0000 </r>
       <r>    -3.8127     0.0000   130.0000 </r>
       <r>    -3.7130     0.0000   130.0000 </r>
       <r>    -3.6133     0.0000   130.0000 </r>
       <r>    -3.5136     0.0000   130.0000 </r>
       <r>    -3.4139     0.0000   130.0000 </r>
       <r>    -3.3142     0.0000   130.0000 </r>
       <r>    -3.2144     0.0000   130.0000 </r>
       <r>    -3.1147     0.0000   130.0000 </r>
       <r>    -3.0150     0.0000   130.0000 </r>
       <r>    -2.9153     0.0000   130.0000 </r>
       <r>    -2.8156     0.0000   130.0000 </r>
       <r>    -2.7159     0.0000   130.0000 </r>
       <r>    -2.6162     0.0001   130.0000 </r>
       <r>    -2.5165     0.0023   130.0002 </r>
       <r>    -2.4168     0.0271   130.0029 </r>
       <r>    -2.3170     0.2061   130.0235 </r>
       <r>    -2.2173     1.0337   130.1266 </r>
       <r>    -2.1176     3.5019   130.4758 </r>
       <r>    -2.0179     8.2876   131.3021 </r>
       <r>    -1.9182    14.4359   132.7415 </r>
       <r>    -1.8185    20.1687   134.7526 </r>
       <r>    -1.7188    25.4599   137.2912 </r>
       <r>    -1.6191    31.5909   140.4412 </r>
       <r>    -1.5194    37.5262   144.1829 </r>
       <r>    -1.4196    39.3411   148.1057 </r>
       <r>    -1.3199    34.5184   151.5475 </r>
       <r>    -1.2202    25.4739   154.0876 </r>
       <r>    -1.1205    18.5047   155.9327 </r>
       <r>    -1.0208    19.5745   157.8845 </r>
       <r>    -0.9211    29.5342   160.8294 </r>
       <r>    -0.8214    42.4644   165.0635 </r>
       <r>    -0.7217    50.2825   170.0772 </r>
       <r>    -0.6220    50.1241   175.0752 </r>
       <r>    -0.5222    46.5033   179.7120 </r>
       <r>    -0.4225    45.9475   184.2935 </r>
       <r>    -0.3228    50.9244   189.3712 </r>
       <r>    -0.2231    60.0763   195.3615 </r>
       <r>    -0.1234    71.8236   202.5231 </r>
       <r>    -0.0237    84.6777   210.9664 </r>
       <r>     0.0760    96.0548   220.5441 </r>
       <r>     0.1757   103.2964   230.8438 </r>
       <r>     0.2754   104.3160   241.2453 </r>
       <r>     0.3752    97.9604   251.0130 </r>
       <r>     0.4749    85.1388   259.5022 </r>
       <r>     0.5746    67.7542   266.2581 </r>
       <r>     0.6743    48.3919   271.0833 </r>
       <r>     0.7740    31.1578   274.1900 </r>
       <r>     0.8737    18.8244   276.0670 </r>
       <r>     0.9734    10.7720   277.1411 </r>
       <r>     1.0731     5.4856   277.6881 </r>
       <r>     1.1728     2.5799   277.9453 </r>
       <r>     1.2725     2.1334   278.1580 </r>
       <r>     1.3723     3.6513   278.5221 </r>
       <r>     1.4720     5.3322   279.0538 </r>
       <r>     1.5717     5.0583   279.5582 </r>
       <r>     1.6714     3.0115   279.8584 </r>
       <r>     1.7711     1.1194   279.9701 </r>
       <r>     1.8708     0.2593   279.9959 </r>
       <r>     1.9705     0.0374   279.9996 </r>
       <r>     2.0702     0.0033   280.0000 </r>
       <r>     2.1699     0.0002   280.0000 </r>
       <r>     2.2697     0.0000   280.0000 </r>
       <r>     2.3694     0.0000   280.0000 </r>
       <r>     2.4691     0.0000   280.0000 </r>
       <r>     2.5688     0.0007   280.0001 </r>
       <r>     2.6685     0.0088   280.0009 </r>
       <r>     2.7682     0.0758   280.0085 </r>
       <r>     2.8679     0.4259   280.0510 </r>
       <r>     2.9676     1.5860   280.2091 </r>
       <r>     3.0673     4.0465   280.6126 </r>
       <r>     3.1671     7.4845   281.3589 </r>
       <r>     3.2668    10.8106   282.4368 </r>
       <r>     3.3665    12.8523   283.7183 </r>
       <r>     3.4662    12.6475   284.9794 </r>
       <r>     3.5659    10.7445   286.0508 </r>
       <r>     3.6656    10.1041   287.0582 </r>
       <r>     3.7653    13.2030   288.3747 </r>
       <r>     3.8650    18.8819   290.2575 </r>
       <r>     3.9647    24.2753   292.6780 </r>
       <r>     4.0645    27.6643   295.4364 </r>
       <r>     4.1642    27.6219   298.1906 </r>
       <r>     4.2639    23.2048   300.5044 </r>
       <r>     4.3636    16.0787   302.1076 </r>
       <r>     4.4633     9.4811   303.0530 </r>
       <r>     4.5630     5.1863   303.5701 </r>
       <r>     4.6627     3.0713   303.8763 </r>
       <r>     4.7624     2.7363   304.1492 </r>
       <r>     4.8621     4.4613   304.5940 </r>
       <r>     4.9618     8.8304   305.4745 </r>
       <r>     5.0616    15.6229   307.0323 </r>
       <r>     5.1613    23.2185   309.3474 </r>
       <r>     5.2610    29.1940   312.2584 </r>
       <r>     5.3607    31.1940   315.3688 </r>
       <r>     5.4604    28.2385   318.1844 </r>
       <r>     5.5601    22.1443   320.3925 </r>
       <r>     5.6598    16.8327   322.0709 </r>
       <r>     5.7595    15.4001   323.6064 </r>
       <r>     5.8592    18.1273   325.4139 </r>
       <r>     5.9590    23.4450   327.7516 </r>
       <r>     6.0587    29.0846   330.6517 </r>
       <r>     6.1584    31.7591   333.8184 </r>
       <r>     6.2581    28.3727   336.6475 </r>
       <r>     6.3578    19.4691   338.5887 </r>
       <r>     6.4575     9.7531   339.5612 </r>
       <r>     6.5572     3.4305   339.9033 </r>
       <r>     6.6569     0.8230   339.9854 </r>
       <r>     6.7566     0.1319   339.9985 </r>
       <r>     6.8564     0.0139   339.9999 </r>
       <r>     6.9561     0.0010   340.0000 </r>
       <r>     7.0558     0.0000   340.0000 </r>
       <r>     7.1555     0.0000   340.0000 </r>
       <r>     7.2552     0.0000   340.0000 </r>
       <r>     7.3549     0.0000   340.0000 </r>
       <r>     7.4546     0.0000   340.0000 </r>
       <r>     7.5543     0.0000   340.0000 </r>
       <r>     7.6540     0.0000   340.0000 </r>
       <r>     7.7538     0.0000   340.0000 </r>
       <r>     7.8535     0.0000   340.0000 </r>
       <r>     7.9532     0.0000   340.0000 </r>
       <r>     8.0529     0.0000   340.0000 </r>
       <r>     8.1526     0.0000   340.0000 </r>
       <r>     8.2523     0.0000   340.0000 </r>
       <r>     8.3520     0.0000   340.0000 </r>
      </set>
     </set>
    </array>
   </total>
  </dos>
 </calculation>
 <structure name="finalpos" >
  <crystal>
   <varray name="basis" >
    <v>      12.57433319       0.00000000       0.00000000 </v>
    <v>       0.00000000      12.57433319       0.00000000 </v>
    <v>       0.00000000       0.00000000      12.57433319 </v>
   </varray>
   <i name="volume">   1988.17629733 </i>
   <varray name="rec_basis" >
    <v>       0.07952708       0.00000000       0.00000000 </v>
    <v>       0.00000000       0.07952708       0.00000000 </v>
    <v>       0.00000000       0.00000000       0.07952708 </v>
   </varray>
  </crystal>
  <varray name="positions" >
   <v>       0.01527487       0.00916656       0.01129732 </v>
   <v>       0.00754771       0.01694266       0.50985379 </v>
   <v>       0.00381873       0.50752197       0.00178584 </v>
   <v>       0.00110529       0.51362140       0.49309821 </v>
   <v>       0.50280811       0.00233791       0.00801197 </v>
   <v>       0.50908619       0.01303363       0.50865808 </v>
   <v>       0.50483417       0.50282819       0.01165737 </v>
   <v>       0.53938869       0.51771090       0.49453300 </v>
   <v>       0.25716205       0.22920096       0.22438752 </v>
   <v>       0.25952660       0.25539795       0.71982205 </v>
   <v>       0.25187100       0.70961140       0.25072991 </v>
   <v>       0.25187446       0.74918550       0.70749855 </v>
   <v>       0.75220661       0.26641591       0.26078788 </v>
   <v>       0.75125455       0.24903861       0.77001046 </v>
   <v>       0.75721428       0.82450625       0.27321377 </v>
   <v>       0.77594461       0.80231779       0.80800786 </v>
   <v>       0.98098974       0.06203764       0.26028627 </v>
   <v>       0.04355299       0.97231039       0.76060170 </v>
   <v>       0.04508025       0.45525069       0.24651812 </v>
   <v>       0.99354915       0.56567312       0.74864297 </v>
   <v>       0.53426375       0.05117424       0.25816695 </v>
   <v>       0.47850139       0.96442382       0.75820980 </v>
   <v>       0.46049026       0.45751314       0.25396683 </v>
   <v>       0.45167069       0.51885159       0.75912018 </v>
   <v>       0.25893698       0.95635102       0.05567964 </v>
   <v>       0.25806999       0.04445199       0.48116155 </v>
   <v>       0.25140055       0.55834489       0.97750292 </v>
   <v>       0.24776580       0.49387958       0.51301808 </v>
   <v>       0.75933608       0.04533478       0.99810327 </v>
   <v>       0.75837247       0.98109028       0.54974106 </v>
   <v>       0.75323042       0.44968449       0.01172201 </v>
   <v>       0.75852260       0.54109922       0.37954159 </v>
   <v>       0.05433616       0.25727591       0.95890211 </v>
   <v>       0.97106206       0.26622726       0.55275305 </v>
   <v>       0.96913084       0.75773689       0.05758096 </v>
   <v>       0.02794193       0.76693124       0.45844923 </v>
   <v>       0.45923440       0.24984002       0.96639848 </v>
   <v>       0.54310696       0.26275995       0.53892072 </v>
   <v>       0.55631579       0.75104631       0.04283618 </v>
   <v>       0.48130445       0.76236727       0.45779473 </v>
   <v>       0.70324667       0.54214031       0.68802799 </v>
  </varray>
 </structure>
</modeling>
