<?xml version="1.0" encoding="ISO-8859-1"?>
<modeling>
 <generator>
  <i name="program" type="string">vasp </i>
  <i name="version" type="string">6.4.3  </i>
  <i name="subversion" type="string">19Mar24 (build Jan  2 2025 14:32:07) complex                          parallel </i>
  <i name="platform" type="string">LinuxGNU </i>
  <i name="date" type="string">2025 11 13 </i>
  <i name="time" type="string">19:18:35 </i>
 </generator>
 <incar>
  <i type="string" name="SYSTEM">Cubic CsPbI3 + I_i(0) defect in relaxed 40 atom supercell</i>
  <i type="string" name="ALGO">Normal</i>
  <i type="int" name="NELM">    60</i>
  <i type="int" name="IBRION">     3</i>
  <i name="EDIFF">      0.00000100</i>
  <i name="EDIFFG">     -0.02000000</i>
  <i type="int" name="NSW">   200</i>
  <i type="int" name="ISIF">     2</i>
  <i type="int" name="ISYM">     0</i>
  <i name="ENCUT">    400.00000000</i>
  <i name="POTIM">      0.00000000</i>
  <i type="string" name="LREAL">Auto	</i>
  <i type="int" name="ISMEAR">     0</i>
  <i name="SIGMA">      0.20000000</i>
  <i type="string" name="GGA">PE</i>
  <i type="int" name="IVDW">    12</i>
  <i name="SPRING">     -5.00000000</i>
 </incar>
 <primitive_cell>
  <structure name="primitive_cell" >
   <crystal>
    <varray name="basis" >
     <v>      12.57433319       0.00000000       0.00000000 </v>
     <v>       0.00000000      12.57433319       0.00000000 </v>
     <v>       0.00000000       0.00000000      12.57433319 </v>
    </varray>
    <i name="volume">   1988.17629733 </i>
    <varray name="rec_basis" >
     <v>       0.07952708       0.00000000       0.00000000 </v>
     <v>       0.00000000       0.07952708       0.00000000 </v>
     <v>       0.00000000       0.00000000       0.07952708 </v>
    </varray>
   </crystal>
   <varray name="positions" >
    <v>       0.01540838       0.01342014       0.00725271 </v>
    <v>       0.00364908       0.01035967       0.50517952 </v>
    <v>       0.01385569       0.49641882       0.00753837 </v>
    <v>       0.01041681       0.50609307       0.50970126 </v>
    <v>       0.51578905       0.00288187       0.00221651 </v>
    <v>       0.50443973       0.00448010       0.48996133 </v>
    <v>       0.52115119       0.50558673       0.00971165 </v>
    <v>       0.50732652       0.54794830       0.49215303 </v>
    <v>       0.27080334       0.25690895       0.23306549 </v>
    <v>       0.25983109       0.24166269       0.70944622 </v>
    <v>       0.21175075       0.73505065       0.26323852 </v>
    <v>       0.24625978       0.75658340       0.80911784 </v>
    <v>       0.76408110       0.28220941       0.29542138 </v>
    <v>       0.72692606       0.25469226       0.73959033 </v>
    <v>       0.77641053       0.78165004       0.27165035 </v>
    <v>       0.80520173       0.76212606       0.77763063 </v>
    <v>       0.96213135       0.04351459       0.25565846 </v>
    <v>       0.05178500       0.98356585       0.75600448 </v>
    <v>       0.01025650       0.46777460       0.25873865 </v>
    <v>       0.02983725       0.54221802       0.75922884 </v>
    <v>       0.56217446       0.05599638       0.24362643 </v>
    <v>       0.45831366       0.99513987       0.74569012 </v>
    <v>       0.51488713       0.45008815       0.25300807 </v>
    <v>       0.48668577       0.45332618       0.75642123 </v>
    <v>       0.26546374       0.96494631       0.05637008 </v>
    <v>       0.25213765       0.02290070       0.44444796 </v>
    <v>       0.26938578       0.54438774       0.02805791 </v>
    <v>       0.26075326       0.48610513       0.49305577 </v>
    <v>       0.76604081       0.03521514       0.95381481 </v>
    <v>       0.75273730       0.97431597       0.54887382 </v>
    <v>       0.76899522       0.43527027       0.99612003 </v>
    <v>       0.75760084       0.52530986       0.51393683 </v>
    <v>       0.07883131       0.25592374       0.97169575 </v>
    <v>       0.97783038       0.25676715       0.54999928 </v>
    <v>       0.98261436       0.75577930       0.03731598 </v>
    <v>       0.01185759       0.75732875       0.48713671 </v>
    <v>       0.46235516       0.24817558       0.96786384 </v>
    <v>       0.52098169       0.25042251       0.51379762 </v>
    <v>       0.58044095       0.75081170       0.01695213 </v>
    <v>       0.49629416       0.76325116       0.36968871 </v>
    <v>       0.51845612       0.71189042       0.68662135 </v>
   </varray>
  </structure>
  <varray name="primitive_index" >
   <v type="int" >        1 </v>
   <v type="int" >        2 </v>
   <v type="int" >        3 </v>
   <v type="int" >        4 </v>
   <v type="int" >        5 </v>
   <v type="int" >        6 </v>
   <v type="int" >        7 </v>
   <v type="int" >        8 </v>
   <v type="int" >        9 </v>
   <v type="int" >       10 </v>
   <v type="int" >       11 </v>
   <v type="int" >       12 </v>
   <v type="int" >       13 </v>
   <v type="int" >       14 </v>
   <v type="int" >       15 </v>
   <v type="int" >       16 </v>
   <v type="int" >       17 </v>
   <v type="int" >       18 </v>
   <v type="int" >       19 </v>
   <v type="int" >       20 </v>
   <v type="int" >       21 </v>
   <v type="int" >       22 </v>
   <v type="int" >       23 </v>
   <v type="int" >       24 </v>
   <v type="int" >       25 </v>
   <v type="int" >       26 </v>
   <v type="int" >       27 </v>
   <v type="int" >       28 </v>
   <v type="int" >       29 </v>
   <v type="int" >       30 </v>
   <v type="int" >       31 </v>
   <v type="int" >       32 </v>
   <v type="int" >       33 </v>
   <v type="int" >       34 </v>
   <v type="int" >       35 </v>
   <v type="int" >       36 </v>
   <v type="int" >       37 </v>
   <v type="int" >       38 </v>
   <v type="int" >       39 </v>
   <v type="int" >       40 </v>
   <v type="int" >       41 </v>
  </varray>
 </primitive_cell>
 <kpoints>
  <generation param="Monkhorst-Pack">
   <v type="int" name="divisions">       3        3        3 </v>
   <v name="usershift">      0.00000000       0.00000000       0.00000000 </v>
   <v name="genvec1">      0.33333333       0.00000000       0.00000000 </v>
   <v name="genvec2">      0.00000000       0.33333333       0.00000000 </v>
   <v name="genvec3">      0.00000000       0.00000000       0.33333333 </v>
   <v name="shift">      0.00000000       0.00000000       0.00000000 </v>
  </generation>
  <varray name="kpointlist" >
   <v>       0.00000000       0.00000000       0.00000000 </v>
   <v>       0.33333333       0.00000000       0.00000000 </v>
   <v>       0.00000000       0.33333333       0.00000000 </v>
   <v>       0.00000000       0.00000000       0.33333333 </v>
   <v>       0.33333333       0.33333333       0.00000000 </v>
   <v>       0.00000000       0.33333333       0.33333333 </v>
   <v>       0.33333333       0.00000000       0.33333333 </v>
   <v>      -0.33333333       0.33333333       0.00000000 </v>
   <v>      -0.33333333       0.00000000       0.33333333 </v>
   <v>       0.00000000      -0.33333333       0.33333333 </v>
   <v>       0.33333333       0.33333333       0.33333333 </v>
   <v>      -0.33333333       0.33333333       0.33333333 </v>
   <v>      -0.33333333      -0.33333333       0.33333333 </v>
   <v>       0.33333333      -0.33333333       0.33333333 </v>
  </varray>
  <varray name="weights" >
   <v>       0.03703704 </v>
   <v>       0.07407407 </v>
   <v>       0.07407407 </v>
   <v>       0.07407407 </v>
   <v>       0.07407407 </v>
   <v>       0.07407407 </v>
   <v>       0.07407407 </v>
   <v>       0.07407407 </v>
   <v>       0.07407407 </v>
   <v>       0.07407407 </v>
   <v>       0.07407407 </v>
   <v>       0.07407407 </v>
   <v>       0.07407407 </v>
   <v>       0.07407407 </v>
  </varray>
 </kpoints>
 <parameters>
  <separator name="general" >
   <i type="string" name="SYSTEM">Cubic CsPbI3 + I_i(0) defect in relaxed</i>
   <i type="logical" name="LCOMPAT"> F  </i>
  </separator>
  <separator name="electronic" >
   <i type="string" name="PREC">normal</i>
   <i name="ENMAX">    400.00000000</i>
   <i name="ENAUG">    407.93300000</i>
   <i name="EDIFF">      0.00000100</i>
   <i type="int" name="IALGO">    38</i>
   <i type="int" name="IWAVPR">    11</i>
   <i type="int" name="NBANDS">   170</i>
   <i type="int" name="NBANDSLOW">    -1</i>
   <i type="int" name="NBANDSHIGH">    -1</i>
   <i name="NELECT">    279.00000000</i>
   <i type="int" name="TURBO">     0</i>
   <i type="int" name="IRESTART">     0</i>
   <i type="int" name="NREBOOT">     0</i>
   <i type="int" name="NMIN">     0</i>
   <i name="EREF">      0.00000000</i>
   <separator name="electronic smearing" >
    <i type="int" name="ISMEAR">     0</i>
    <i name="SIGMA">      0.20000000</i>
    <i name="KSPACING">      0.50000000</i>
    <i type="logical" name="KGAMMA"> T  </i>
    <i type="logical" name="KBLOWUP"> T  </i>
   </separator>
   <separator name="electronic projectors" >
    <i type="logical" name="LREAL"> T  </i>
    <v name="ROPT">     -0.00050000     -0.00050000     -0.00050000</v>
    <i type="int" name="LMAXPAW">  -100</i>
    <i type="int" name="LMAXMIX">     2</i>
    <i type="logical" name="NLSPLINE"> F  </i>
   </separator>
   <separator name="electronic startup" >
    <i type="int" name="ISTART">     0</i>
    <i type="int" name="ICHARG">     2</i>
    <i type="int" name="INIWAV">     1</i>
   </separator>
   <separator name="electronic spin" >
    <i type="int" name="ISPIN">     1</i>
    <i type="logical" name="LNONCOLLINEAR"> F  </i>
    <v name="MAGMOM">      1.00000000      1.00000000      1.00000000      1.00000000      1.00000000      1.00000000      1.00000000      1.00000000      1.00000000      1.00000000      1.00000000      1.00000000      1.00000000      1.00000000      1.00000000      1.00000000      1.00000000      1.00000000      1.00000000      1.00000000
      1.00000000      1.00000000      1.00000000      1.00000000      1.00000000      1.00000000      1.00000000      1.00000000      1.00000000      1.00000000      1.00000000      1.00000000      1.00000000      1.00000000      1.00000000      1.00000000      1.00000000      1.00000000      1.00000000      1.00000000
      1.00000000</v>
    <i name="NUPDOWN">     -1.00000000</i>
    <i type="logical" name="LSORBIT"> F  </i>
    <v name="SAXIS">      0.00000000      0.00000000      1.00000000</v>
    <i type="logical" name="LSPIRAL"> F  </i>
    <v name="QSPIRAL">      0.00000000      0.00000000      0.00000000</v>
    <i type="logical" name="LZEROZ"> F  </i>
   </separator>
   <separator name="electronic exchange-correlation" >
    <i type="logical" name="LASPH"> F  </i>
   </separator>
   <separator name="electronic convergence" >
    <i type="int" name="NELM">    60</i>
    <i type="int" name="NELMDL">    -5</i>
    <i type="int" name="NELMIN">     2</i>
    <i name="ENINI">    400.00000000</i>
    <separator name="electronic convergence detail" >
     <i type="logical" name="LDIAG"> T  </i>
     <i type="logical" name="LSUBROT"> F  </i>
     <i name="WEIMIN">      0.00100000</i>
     <i name="EBREAK">      0.00000000</i>
     <i name="DEPER">      0.30000000</i>
     <i type="int" name="NRMM">     4</i>
     <i name="TIME">      0.40000000</i>
    </separator>
   </separator>
   <separator name="electronic mixer" >
    <i name="AMIX">      0.40000000</i>
    <i name="BMIX">      1.00000000</i>
    <i name="AMIN">      0.10000000</i>
    <i name="AMIX_MAG">      1.60000000</i>
    <i name="BMIX_MAG">      1.00000000</i>
    <separator name="electronic mixer details" >
     <i type="int" name="IMIX">     4</i>
     <i type="logical" name="MIXFIRST"> F  </i>
     <i type="int" name="MAXMIX">   -45</i>
     <i name="WC">    100.00000000</i>
     <i type="int" name="INIMIX">     1</i>
     <i type="int" name="MIXPRE">     1</i>
     <i type="int" name="MREMOVE">     5</i>
    </separator>
   </separator>
   <separator name="electronic dipolcorrection" >
    <i type="logical" name="LDIPOL"> F  </i>
    <i type="logical" name="LMONO"> F  </i>
    <i type="int" name="IDIPOL">     0</i>
    <i name="EPSILON">      1.00000000</i>
    <v name="DIPOL">   -100.00000000   -100.00000000   -100.00000000</v>
    <i name="EFIELD">      0.00000000</i>
    <i type="logical" name="LVACPOTAV"> F  </i>
   </separator>
  </separator>
  <separator name="grids" >
   <i type="int" name="NGX">    64</i>
   <i type="int" name="NGY">    64</i>
   <i type="int" name="NGZ">    64</i>
   <i type="int" name="NGXF">   128</i>
   <i type="int" name="NGYF">   128</i>
   <i type="int" name="NGZF">   128</i>
   <i type="logical" name="ADDGRID"> F  </i>
  </separator>
  <separator name="ionic" >
   <i type="int" name="NSW">   200</i>
   <i type="int" name="IBRION">     3</i>
   <i type="int" name="MDALGO">     0</i>
   <i type="int" name="ISIF">     2</i>
   <i name="PSTRESS">      0.00000000</i>
   <i name="EDIFFG">     -0.02000000</i>
   <i type="int" name="NFREE">     0</i>
   <i name="POTIM">      0.00000000</i>
   <i name="SMASS">     -3.00000000</i>
   <i name="SCALEE">      1.00000000</i>
  </separator>
  <separator name="ionic md" >
   <i name="TEBEG">      0.00010000</i>
   <i name="TEEND">      0.00010000</i>
   <i type="int" name="NBLOCK">     1</i>
   <i type="int" name="KBLOCK">   200</i>
   <i type="int" name="NPACO">   256</i>
   <i name="APACO">     10.00000000</i>
  </separator>
  <separator name="symmetry" >
   <i type="int" name="ISYM">     0</i>
   <i name="SYMPREC">      0.00001000</i>
  </separator>
  <separator name="dos" >
   <i type="int" name="LORBIT">     0</i>
   <v name="RWIGS">     -1.00000000     -1.00000000     -1.00000000</v>
   <i type="int" name="NEDOS">   301</i>
   <i name="EMIN">     10.00000000</i>
   <i name="EMAX">    -10.00000000</i>
   <i name="EFERMI">      0.00000000</i>
  </separator>
  <separator name="writing" >
   <i type="int" name="NWRITE">     2</i>
   <i type="logical" name="LWAVE"> T  </i>
   <i type="logical" name="LDOWNSAMPLE"> F  </i>
   <i type="logical" name="LCHARG"> T  </i>
   <i type="logical" name="LPARD"> F  </i>
   <i type="logical" name="LVTOT"> F  </i>
   <i type="logical" name="LVHAR"> F  </i>
   <i type="logical" name="LELF"> F  </i>
   <i type="logical" name="LOPTICS"> F  </i>
   <v name="STM">      0.00000000      0.00000000      0.00000000      0.00000000      0.00000000      0.00000000      0.00000000</v>
  </separator>
  <separator name="performance" >
   <i type="int" name="NPAR">    10</i>
   <i type="int" name="NSIM">     4</i>
   <i type="int" name="NBLK">    -1</i>
   <i type="logical" name="LPLANE"> T  </i>
   <i type="logical" name="LSCALAPACK"> T  </i>
   <i type="logical" name="LSCAAWARE"> F  </i>
   <i type="logical" name="LSCALU"> F  </i>
   <i type="logical" name="LASYNC"> F  </i>
   <i type="logical" name="LORBITALREAL"> F  </i>
  </separator>
  <separator name="miscellaneous" >
   <i type="int" name="IDIOT">     3</i>
   <i type="int" name="PHON_NSTRUCT">    -1</i>
   <i type="logical" name="LMUSIC"> F  </i>
   <v name="POMASS">    207.20000000    132.90000000    126.90400000</v>
   <v name="DARWINR">      0.00000000      0.00000000      0.00000000</v>
   <v name="DARWINV">      1.00000000      1.00000000      1.00000000</v>
   <i type="logical" name="LCORR"> T  </i>
  </separator>
  <i type="logical" name="GGA_COMPAT"> T  </i>
  <i type="logical" name="LBERRY"> F  </i>
  <i type="int" name="ICORELEVEL">     0</i>
  <i type="logical" name="LDAU"> F  </i>
  <i type="int" name="I_CONSTRAINED_M">     0</i>
  <separator name="electronic exchange-correlation" >
   <i type="string" name="GGA    ">PE</i>
   <i type="string" name="XC_C">1</i>
   <i type="int" name="VOSKOWN">     0</i>
   <i type="logical" name="LHFCALC"> F  </i>
   <i type="string" name="PRECFOCK"></i>
   <i type="logical" name="LSYMGRAD"> F  </i>
   <i type="logical" name="LHFONE"> F  </i>
   <i type="logical" name="LRHFCALC"> F  </i>
   <i type="logical" name="LTHOMAS"> F  </i>
   <i type="logical" name="LMODELHF"> F  </i>
   <i type="logical" name="LFOCKACE"> F  </i>
   <i name="ENCUT4O">     -1.00000000</i>
   <i type="int" name="EXXOEP">     0</i>
   <i type="int" name="FOURORBIT">     0</i>
   <i name="AEXX">      0.00000000</i>
   <i name="HFALPHA">      0.00000000</i>
   <i name="MCALPHA">      0.00000000</i>
   <i name="ALDAX">      1.00000000</i>
   <i name="AGGAX">      1.00000000</i>
   <i name="AMGGAX">      1.00000000</i>
   <i name="ALDAC">      1.00000000</i>
   <i name="AGGAC">      1.00000000</i>
   <i name="AMGGAC">      1.00000000</i>
   <i type="int" name="NKREDX">     1</i>
   <i type="int" name="NKREDY">     1</i>
   <i type="int" name="NKREDZ">     1</i>
   <i type="logical" name="SHIFTRED"> F  </i>
   <i type="logical" name="ODDONLY"> F  </i>
   <i type="logical" name="EVENONLY"> F  </i>
   <i type="int" name="LMAXFOCK">     0</i>
   <i type="int" name="NMAXFOCKAE">     0</i>
   <i type="logical" name="LFOCKAEDFT"> F  </i>
   <i name="HFSCREEN">      0.00000000</i>
   <i name="HFSCREENC">      0.00000000</i>
   <i type="int" name="NBANDSGWLOW">     0</i>
  </separator>
  <separator name="vdW DFT" >
   <i type="logical" name="LUSE_VDW"> F  </i>
   <i type="int" name="IVDW_NL">    -1</i>
   <i type="logical" name="LSPIN_VDW"> F  </i>
   <i name="ZAB_VDW">     -0.84910000</i>
   <i name="GAMMA_VDW">      1.39626340</i>
   <i name="ALPHA_VDW">      0.00000000</i>
   <i name="PARAM1">      0.12340000</i>
   <i name="PARAM2">      1.00000000</i>
   <i name="BPARAM">      6.30000000</i>
   <i name="CPARAM">      0.00930000</i>
  </separator>
  <separator name="model GW" >
   <i type="int" name="MODEL_GW">     0</i>
   <i name="MODEL_EPS0">     29.09526289</i>
   <i name="MODEL_ALPHA">      1.00000000</i>
  </separator>
  <separator name="linear response parameters" >
   <i type="logical" name="LEPSILON"> F  </i>
   <i type="logical" name="LRPA"> F  </i>
   <i type="logical" name="LNABLA"> F  </i>
   <i type="logical" name="LVEL"> F  </i>
   <i name="CSHIFT">      0.10000000</i>
   <i name="OMEGAMAX">     -1.00000000</i>
   <i name="DEG_THRESHOLD">      0.00200000</i>
   <i name="RTIME">     -0.10000000</i>
   <i name="WPLASMAI">      0.00000000</i>
   <v name="DFIELD">      0.00000000      0.00000000      0.00000000</v>
   <v name="WPLASMA">      0.00000000      0.00000000      0.00000000      0.00000000      0.00000000      0.00000000      0.00000000      0.00000000      0.00000000</v>
  </separator>
  <separator name="orbital magnetization" >
   <i type="logical" name="NUCIND"> F  </i>
   <v name="MAGPOS">      0.00000000      0.00000000      0.00000000</v>
   <i type="logical" name="LNICSALL"> T  </i>
   <i type="logical" name="ORBITALMAG"> F  </i>
   <i type="logical" name="LMAGBLOCH"> F  </i>
   <i type="logical" name="LCHIMAG"> F  </i>
   <i type="logical" name="LGAUGE"> T  </i>
   <i type="int" name="MAGATOM">     0</i>
   <v name="MAGDIPOL">      0.00000000      0.00000000      0.00000000</v>
   <v name="AVECCONST">      0.00000000      0.00000000      0.00000000</v>
  </separator>
  <separator name="response functions" >
   <i type="logical" name="LALL_IN_ONE"> F  </i>
   <i type="int" name="IALL_IN_ONE">    -1</i>
   <i type="int" name="NBANDS_WAVE">    -1</i>
   <i type="logical" name="LFINITE_TEMPERATURE"> F  </i>
   <i type="logical" name="LADDER"> F  </i>
   <i type="logical" name="LRPAFORCE"> F  </i>
   <i type="logical" name="LFXC"> F  </i>
   <i type="logical" name="LHARTREE"> T  </i>
   <i type="int" name="IBSE">     0</i>
   <v type="int" name="KPOINT">    -1     0     0     0</v>
   <i type="logical" name="LTCTC"> F  </i>
   <i type="logical" name="LTCTE"> F  </i>
   <i type="logical" name="LTETE"> F  </i>
   <i type="logical" name="LTRIPLET"> F  </i>
   <i type="logical" name="LFXCEPS"> F  </i>
   <i type="logical" name="LFXHEG"> F  </i>
   <i type="int" name="NATURALO">     2</i>
   <i type="logical" name="LHOLEGF"> F  </i>
   <i type="logical" name="L2ORDER"> F  </i>
   <i type="logical" name="LDMP1"> F  </i>
   <i type="logical" name="LMP2LT"> F  </i>
   <i type="logical" name="LSMP2LT"> F  </i>
   <i type="logical" name="LGWLF"> F  </i>
   <i name="ENCUTGW">     -1.60000002</i>
   <i name="ENCUTGWSOFT">     -1.60000002</i>
   <i name="ENCUTLF">     -1.00000000</i>
   <i type="logical" name="ESF_SPLINES"> F  </i>
   <i name="ESF_CONV">      0.01000000</i>
   <i type="int" name="ESF_NINTER">    15</i>
   <i type="int" name="LMAXMP2">    -1</i>
   <i name="SCISSOR">      0.00000000</i>
   <i type="int" name="NOMEGA">     0</i>
   <i type="int" name="NOMEGAR">     0</i>
   <i type="int" name="NBANDSGW">    -1</i>
   <i type="int" name="NBANDSO">    -1</i>
   <i type="int" name="NBANDSV">    -1</i>
   <i type="int" name="NELMGW">     1</i>
   <i type="int" name="NELMHF">     1</i>
   <i type="int" name="DIM">     3</i>
   <i type="int" name="IESPILON">     4</i>
   <i type="int" name="ANTIRES">     0</i>
   <i name="OMEGAMAX">    -30.00000000</i>
   <i name="OMEGAMIN">    -30.00000000</i>
   <i name="OMEGATL">   -200.00000000</i>
   <i type="int" name="OMEGAGRID">     0</i>
   <i name="CSHIFT">     -0.10000000</i>
   <i type="logical" name="LSELFENERGY"> F  </i>
   <i type="logical" name="LSPECTRAL"> F  </i>
   <i type="logical" name="LSPECTRALGW"> F  </i>
   <i type="logical" name="LSINGLES"> F  </i>
   <i type="logical" name="LFERMIGW"> F  </i>
   <i type="logical" name="ODDONLYGW"> F  </i>
   <i type="logical" name="EVENONLYGW"> F  </i>
   <i type="int" name="NKREDLFX">     1</i>
   <i type="int" name="NKREDLFY">     1</i>
   <i type="int" name="NKREDLFZ">     1</i>
   <i type="int" name="MAXMEM">  2800</i>
   <i type="int" name="TELESCOPE">     0</i>
   <i type="int" name="NTAUPAR">    -1</i>
   <i type="int" name="NOMEGAPAR">    -1</i>
   <i name="DAMP_NEWTON">      0.80000001</i>
   <i name="LAMBDA">      1.00000000</i>
  </separator>
  <separator name="External order field" >
   <i name="OFIELD_KAPPA">      0.00000000</i>
   <v name="OFIELD_K">      0.00000000      0.00000000      0.00000000</v>
   <i name="OFIELD_Q6_NEAR">      0.00000000</i>
   <i name="OFIELD_Q6_FAR">      0.00000000</i>
   <i name="OFIELD_A">      0.00000000</i>
  </separator>
  <separator name="optional k-points parameters" >
   <i type="int" name="KPOINTS_OPT_MODE">     1</i>
   <i type="logical" name="LKPOINTS_OPT"> F  </i>
  </separator>
 </parameters>
 <atominfo>
  <atoms>      41 </atoms>
  <types>       3 </types>
  <array name="atoms" >
   <dimension dim="1">ion</dimension>
   <field type="string">element</field>
   <field type="int">atomtype</field>
   <set>
    <rc><c>Pb</c><c>   1</c></rc>
    <rc><c>Pb</c><c>   1</c></rc>
    <rc><c>Pb</c><c>   1</c></rc>
    <rc><c>Pb</c><c>   1</c></rc>
    <rc><c>Pb</c><c>   1</c></rc>
    <rc><c>Pb</c><c>   1</c></rc>
    <rc><c>Pb</c><c>   1</c></rc>
    <rc><c>Pb</c><c>   1</c></rc>
    <rc><c>Cs</c><c>   2</c></rc>
    <rc><c>Cs</c><c>   2</c></rc>
    <rc><c>Cs</c><c>   2</c></rc>
    <rc><c>Cs</c><c>   2</c></rc>
    <rc><c>Cs</c><c>   2</c></rc>
    <rc><c>Cs</c><c>   2</c></rc>
    <rc><c>Cs</c><c>   2</c></rc>
    <rc><c>Cs</c><c>   2</c></rc>
    <rc><c>I </c><c>   3</c></rc>
    <rc><c>I </c><c>   3</c></rc>
    <rc><c>I </c><c>   3</c></rc>
    <rc><c>I </c><c>   3</c></rc>
    <rc><c>I </c><c>   3</c></rc>
    <rc><c>I </c><c>   3</c></rc>
    <rc><c>I </c><c>   3</c></rc>
    <rc><c>I </c><c>   3</c></rc>
    <rc><c>I </c><c>   3</c></rc>
    <rc><c>I </c><c>   3</c></rc>
    <rc><c>I </c><c>   3</c></rc>
    <rc><c>I </c><c>   3</c></rc>
    <rc><c>I </c><c>   3</c></rc>
    <rc><c>I </c><c>   3</c></rc>
    <rc><c>I </c><c>   3</c></rc>
    <rc><c>I </c><c>   3</c></rc>
    <rc><c>I </c><c>   3</c></rc>
    <rc><c>I </c><c>   3</c></rc>
    <rc><c>I </c><c>   3</c></rc>
    <rc><c>I </c><c>   3</c></rc>
    <rc><c>I </c><c>   3</c></rc>
    <rc><c>I </c><c>   3</c></rc>
    <rc><c>I </c><c>   3</c></rc>
    <rc><c>I </c><c>   3</c></rc>
    <rc><c>I </c><c>   3</c></rc>
   </set>
  </array>
  <array name="atomtypes" >
   <dimension dim="1">type</dimension>
   <field type="int">atomspertype</field>
   <field type="string">element</field>
   <field>mass</field>
   <field>valence</field>
   <field type="string">pseudopotential</field>
   <set>
    <rc><c>   8</c><c>Pb</c><c>    207.20000000</c><c>      4.00000000</c><c>  PAW_PBE Pb 08Apr2002                  </c></rc>
    <rc><c>   8</c><c>Cs</c><c>    132.90000000</c><c>      9.00000000</c><c>  PAW_PBE Cs_sv 25Jan2019               </c></rc>
    <rc><c>  25</c><c>I </c><c>    126.90400000</c><c>      7.00000000</c><c>  PAW_PBE I 08Apr2002                   </c></rc>
   </set>
  </array>
 </atominfo>
 <structure name="initialpos" >
  <crystal>
   <varray name="basis" >
    <v>      12.57433319       0.00000000       0.00000000 </v>
    <v>       0.00000000      12.57433319       0.00000000 </v>
    <v>       0.00000000       0.00000000      12.57433319 </v>
   </varray>
   <i name="volume">   1988.17629733 </i>
   <varray name="rec_basis" >
    <v>       0.07952708       0.00000000       0.00000000 </v>
    <v>       0.00000000       0.07952708       0.00000000 </v>
    <v>       0.00000000       0.00000000       0.07952708 </v>
   </varray>
  </crystal>
  <varray name="positions" >
   <v>       0.01540838       0.01342014       0.00725271 </v>
   <v>       0.00364908       0.01035967       0.50517952 </v>
   <v>       0.01385569       0.49641882       0.00753837 </v>
   <v>       0.01041681       0.50609307       0.50970126 </v>
   <v>       0.51578905       0.00288187       0.00221651 </v>
   <v>       0.50443973       0.00448010       0.48996133 </v>
   <v>       0.52115119       0.50558673       0.00971165 </v>
   <v>       0.50732652       0.54794830       0.49215303 </v>
   <v>       0.27080334       0.25690895       0.23306549 </v>
   <v>       0.25983109       0.24166269       0.70944622 </v>
   <v>       0.21175075       0.73505065       0.26323852 </v>
   <v>       0.24625978       0.75658340       0.80911784 </v>
   <v>       0.76408110       0.28220941       0.29542138 </v>
   <v>       0.72692606       0.25469226       0.73959033 </v>
   <v>       0.77641053       0.78165004       0.27165035 </v>
   <v>       0.80520173       0.76212606       0.77763063 </v>
   <v>       0.96213135       0.04351459       0.25565846 </v>
   <v>       0.05178500       0.98356585       0.75600448 </v>
   <v>       0.01025650       0.46777460       0.25873865 </v>
   <v>       0.02983725       0.54221802       0.75922884 </v>
   <v>       0.56217446       0.05599638       0.24362643 </v>
   <v>       0.45831366       0.99513987       0.74569012 </v>
   <v>       0.51488713       0.45008815       0.25300807 </v>
   <v>       0.48668577       0.45332618       0.75642123 </v>
   <v>       0.26546374       0.96494631       0.05637008 </v>
   <v>       0.25213765       0.02290070       0.44444796 </v>
   <v>       0.26938578       0.54438774       0.02805791 </v>
   <v>       0.26075326       0.48610513       0.49305577 </v>
   <v>       0.76604081       0.03521514       0.95381481 </v>
   <v>       0.75273730       0.97431597       0.54887382 </v>
   <v>       0.76899522       0.43527027       0.99612003 </v>
   <v>       0.75760084       0.52530986       0.51393683 </v>
   <v>       0.07883131       0.25592374       0.97169575 </v>
   <v>       0.97783038       0.25676715       0.54999928 </v>
   <v>       0.98261436       0.75577930       0.03731598 </v>
   <v>       0.01185759       0.75732875       0.48713671 </v>
   <v>       0.46235516       0.24817558       0.96786384 </v>
   <v>       0.52098169       0.25042251       0.51379762 </v>
   <v>       0.58044095       0.75081170       0.01695213 </v>
   <v>       0.49629416       0.76325116       0.36968871 </v>
   <v>       0.51845612       0.71189042       0.68662135 </v>
  </varray>
 </structure>
 <calculation>
  <scstep>
   <time name="dav">   17.81   17.82</time>
   <time name="total">   17.89   17.91</time>
   <energy>
    <i name="alphaZ">    325.71046388 </i>
    <i name="ewald"> -10928.65372389 </i>
    <i name="hartreedc">  -1810.60857018 </i>
    <i name="XCdc">  -1769.55355721 </i>
    <i name="pawpsdc">  12287.06968193 </i>
    <i name="pawaedc"> -10010.08791678 </i>
    <i name="eentropy">     -0.31108579 </i>
    <i name="bandstr">    508.64191349 </i>
    <i name="atom">  13117.98845597 </i>
    <i name="e_fr_energy">   1720.19566143 </i>
    <i name="e_wo_entrp">   1720.50674722 </i>
    <i name="e_0_energy">   1720.35120433 </i>
   </energy>
  </scstep>
  <scstep>
   <time name="dav">   22.27   22.27</time>
   <time name="total">   22.27   22.27</time>
   <energy>
    <i name="e_fr_energy">     88.74182092 </i>
    <i name="e_wo_entrp">     88.83930548 </i>
    <i name="e_0_energy">     88.79056320 </i>
   </energy>
  </scstep>
  <scstep>
   <time name="dav">   20.10   20.10</time>
   <time name="total">   20.11   20.11</time>
   <energy>
    <i name="e_fr_energy">   -111.37148546 </i>
    <i name="e_wo_entrp">   -111.24471583 </i>
    <i name="e_0_energy">   -111.30810064 </i>
   </energy>
  </scstep>
  <scstep>
   <time name="dav">   20.97   20.97</time>
   <time name="total">   20.97   20.98</time>
   <energy>
    <i name="e_fr_energy">   -117.12963879 </i>
    <i name="e_wo_entrp">   -117.00358098 </i>
    <i name="e_0_energy">   -117.06660988 </i>
   </energy>
  </scstep>
  <scstep>
   <time name="dav">   21.11   21.11</time>
   <time name="total">   21.71   21.72</time>
   <energy>
    <i name="e_fr_energy">   -117.25986271 </i>
    <i name="e_wo_entrp">   -117.13383312 </i>
    <i name="e_0_energy">   -117.19684792 </i>
   </energy>
  </scstep>
  <scstep>
   <time name="dav">   20.53   20.53</time>
   <time name="total">   21.26   21.26</time>
   <energy>
    <i name="e_fr_energy">   -114.25677976 </i>
    <i name="e_wo_entrp">   -114.13935365 </i>
    <i name="e_0_energy">   -114.19806670 </i>
   </energy>
  </scstep>
  <scstep>
   <time name="dav">   21.05   21.05</time>
   <time name="total">   21.78   21.78</time>
   <energy>
    <i name="e_fr_energy">   -114.00995338 </i>
    <i name="e_wo_entrp">   -113.89620650 </i>
    <i name="e_0_energy">   -113.95307994 </i>
   </energy>
  </scstep>
  <scstep>
   <time name="dav">   20.44   20.44</time>
   <time name="total">   21.17   21.18</time>
   <energy>
    <i name="e_fr_energy">   -114.04296103 </i>
    <i name="e_wo_entrp">   -113.92948068 </i>
    <i name="e_0_energy">   -113.98622085 </i>
   </energy>
  </scstep>
  <scstep>
   <time name="dav">   21.42   21.42</time>
   <time name="total">   22.14   22.14</time>
   <energy>
    <i name="e_fr_energy">   -114.03704006 </i>
    <i name="e_wo_entrp">   -113.92364416 </i>
    <i name="e_0_energy">   -113.98034211 </i>
   </energy>
  </scstep>
  <scstep>
   <time name="dav">   19.89   19.89</time>
   <time name="total">   20.63   20.64</time>
   <energy>
    <i name="e_fr_energy">   -114.00132535 </i>
    <i name="e_wo_entrp">   -113.88792542 </i>
    <i name="e_0_energy">   -113.94462539 </i>
   </energy>
  </scstep>
  <scstep>
   <time name="dav">   20.43   20.43</time>
   <time name="total">   21.16   21.16</time>
   <energy>
    <i name="e_fr_energy">   -114.00115952 </i>
    <i name="e_wo_entrp">   -113.88771017 </i>
    <i name="e_0_energy">   -113.94443484 </i>
   </energy>
  </scstep>
  <scstep>
   <time name="dav">   20.73   20.73</time>
   <time name="total">   21.46   21.46</time>
   <energy>
    <i name="e_fr_energy">   -114.00053580 </i>
    <i name="e_wo_entrp">   -113.88706009 </i>
    <i name="e_0_energy">   -113.94379795 </i>
   </energy>
  </scstep>
  <scstep>
   <time name="dav">   20.54   20.54</time>
   <time name="total">   21.27   21.27</time>
   <energy>
    <i name="e_fr_energy">   -114.00008724 </i>
    <i name="e_wo_entrp">   -113.88656752 </i>
    <i name="e_0_energy">   -113.94332738 </i>
   </energy>
  </scstep>
  <scstep>
   <time name="dav">   20.44   20.44</time>
   <time name="total">   21.17   21.18</time>
   <energy>
    <i name="e_fr_energy">   -114.00072932 </i>
    <i name="e_wo_entrp">   -113.88713289 </i>
    <i name="e_0_energy">   -113.94393111 </i>
   </energy>
  </scstep>
  <scstep>
   <time name="dav">   20.34   20.34</time>
   <time name="total">   21.07   21.07</time>
   <energy>
    <i name="e_fr_energy">   -114.00070550 </i>
    <i name="e_wo_entrp">   -113.88714646 </i>
    <i name="e_0_energy">   -113.94392598 </i>
   </energy>
  </scstep>
  <scstep>
   <time name="dav">   20.72   20.72</time>
   <time name="total">   21.45   21.45</time>
   <energy>
    <i name="e_fr_energy">   -114.00070696 </i>
    <i name="e_wo_entrp">   -113.88715684 </i>
    <i name="e_0_energy">   -113.94393190 </i>
   </energy>
  </scstep>
  <scstep>
   <time name="dav">   19.82   19.82</time>
   <time name="total">   20.53   20.53</time>
   <energy>
    <i name="e_fr_energy">   -114.00072549 </i>
    <i name="e_wo_entrp">   -113.88716659 </i>
    <i name="e_0_energy">   -113.94394604 </i>
   </energy>
  </scstep>
  <scstep>
   <time name="dav">   19.70   19.70</time>
   <time name="total">   20.42   20.43</time>
   <energy>
    <i name="e_fr_energy">   -114.00072420 </i>
    <i name="e_wo_entrp">   -113.88717853 </i>
    <i name="e_0_energy">   -113.94395136 </i>
   </energy>
  </scstep>
  <scstep>
   <time name="dav">   19.62   19.62</time>
   <time name="total">   19.74   19.74</time>
   <energy>
    <i name="alphaZ">    325.71046388 </i>
    <i name="ewald"> -10928.65372389 </i>
    <i name="hartreedc">  -1870.87972219 </i>
    <i name="XCdc">  -1761.22417129 </i>
    <i name="pawpsdc">  15140.94086062 </i>
    <i name="pawaedc"> -12866.17294179 </i>
    <i name="eentropy">     -0.11354077 </i>
    <i name="bandstr">  -1271.59640519 </i>
    <i name="atom">  13117.98845597 </i>
    <i name="e_fr_energy">   -114.00072465 </i>
    <i name="e_wo_entrp">   -113.88718387 </i>
    <i name="e_0_energy">   -113.94395426 </i>
   </energy>
  </scstep>
  <structure>
   <crystal>
    <varray name="basis" >
     <v>      12.57433319       0.00000000       0.00000000 </v>
     <v>       0.00000000      12.57433319       0.00000000 </v>
     <v>       0.00000000       0.00000000      12.57433319 </v>
    </varray>
    <i name="volume">   1988.17629733 </i>
    <varray name="rec_basis" >
     <v>       0.07952708       0.00000000       0.00000000 </v>
     <v>       0.00000000       0.07952708       0.00000000 </v>
     <v>       0.00000000       0.00000000       0.07952708 </v>
    </varray>
   </crystal>
   <varray name="positions" >
    <v>       0.01540838       0.01342014       0.00725271 </v>
    <v>       0.00364908       0.01035967       0.50517952 </v>
    <v>       0.01385569       0.49641882       0.00753837 </v>
    <v>       0.01041681       0.50609307       0.50970126 </v>
    <v>       0.51578905       0.00288187       0.00221651 </v>
    <v>       0.50443973       0.00448010       0.48996133 </v>
    <v>       0.52115119       0.50558673       0.00971165 </v>
    <v>       0.50732652       0.54794830       0.49215303 </v>
    <v>       0.27080334       0.25690895       0.23306549 </v>
    <v>       0.25983109       0.24166269       0.70944622 </v>
    <v>       0.21175075       0.73505065       0.26323852 </v>
    <v>       0.24625978       0.75658340       0.80911784 </v>
    <v>       0.76408110       0.28220941       0.29542138 </v>
    <v>       0.72692606       0.25469226       0.73959033 </v>
    <v>       0.77641053       0.78165004       0.27165035 </v>
    <v>       0.80520173       0.76212606       0.77763063 </v>
    <v>       0.96213135       0.04351459       0.25565846 </v>
    <v>       0.05178500       0.98356585       0.75600448 </v>
    <v>       0.01025650       0.46777460       0.25873865 </v>
    <v>       0.02983725       0.54221802       0.75922884 </v>
    <v>       0.56217446       0.05599638       0.24362643 </v>
    <v>       0.45831366       0.99513987       0.74569012 </v>
    <v>       0.51488713       0.45008815       0.25300807 </v>
    <v>       0.48668577       0.45332618       0.75642123 </v>
    <v>       0.26546374       0.96494631       0.05637008 </v>
    <v>       0.25213765       0.02290070       0.44444796 </v>
    <v>       0.26938578       0.54438774       0.02805791 </v>
    <v>       0.26075326       0.48610513       0.49305577 </v>
    <v>       0.76604081       0.03521514       0.95381481 </v>
    <v>       0.75273730       0.97431597       0.54887382 </v>
    <v>       0.76899522       0.43527027       0.99612003 </v>
    <v>       0.75760084       0.52530986       0.51393683 </v>
    <v>       0.07883131       0.25592374       0.97169575 </v>
    <v>       0.97783038       0.25676715       0.54999928 </v>
    <v>       0.98261436       0.75577930       0.03731598 </v>
    <v>       0.01185759       0.75732875       0.48713671 </v>
    <v>       0.46235516       0.24817558       0.96786384 </v>
    <v>       0.52098169       0.25042251       0.51379762 </v>
    <v>       0.58044095       0.75081170       0.01695213 </v>
    <v>       0.49629416       0.76325116       0.36968871 </v>
    <v>       0.51845612       0.71189042       0.68662135 </v>
   </varray>
  </structure>
  <varray name="forces" >
   <v>      -0.01268236      -0.01540597       0.00219830 </v>
   <v>       0.01042426      -0.01318801      -0.01706353 </v>
   <v>      -0.00117719       0.01472685      -0.02094785 </v>
   <v>       0.02690155      -0.00568395       0.01898703 </v>
   <v>      -0.01040367       0.00805518       0.00930834 </v>
   <v>      -0.00409444      -0.03245017      -0.03432902 </v>
   <v>      -0.02151997      -0.06022525      -0.01948790 </v>
   <v>      -0.00671558       0.01851233       0.04086160 </v>
   <v>       0.01668260      -0.01023692      -0.00153987 </v>
   <v>      -0.02154202      -0.01608798       0.00463440 </v>
   <v>       0.07319467       0.02955298      -0.02876238 </v>
   <v>       0.03187065       0.03751235      -0.01897978 </v>
   <v>      -0.00867711      -0.02662786      -0.02008491 </v>
   <v>       0.03533014      -0.03112055       0.02898064 </v>
   <v>       0.01385692       0.01618082      -0.01266670 </v>
   <v>      -0.01835331       0.02024100      -0.02215781 </v>
   <v>      -0.01877468      -0.00133603      -0.00774360 </v>
   <v>       0.00988366      -0.02151665      -0.00279991 </v>
   <v>       0.01671792       0.00398480       0.00128704 </v>
   <v>      -0.00297211      -0.02007708       0.00554049 </v>
   <v>      -0.00307648       0.00222763       0.02827340 </v>
   <v>      -0.00770533       0.01803691       0.00852006 </v>
   <v>       0.01914482      -0.00041019      -0.01655916 </v>
   <v>       0.07002306       0.13371379       0.05318598 </v>
   <v>      -0.00192168      -0.01495595      -0.00420930 </v>
   <v>       0.00711579       0.01789846       0.02886771 </v>
   <v>      -0.00784999      -0.01253520       0.01391095 </v>
   <v>      -0.03461337      -0.00255570      -0.03218140 </v>
   <v>       0.00637744       0.03526728      -0.02099596 </v>
   <v>       0.01239308       0.02711694      -0.02147212 </v>
   <v>      -0.01006474       0.01188846      -0.01216630 </v>
   <v>      -0.00809312       0.01001733       0.00572841 </v>
   <v>       0.01179040      -0.00990018       0.02210586 </v>
   <v>       0.00275490       0.02687431       0.02012407 </v>
   <v>       0.00872507      -0.01596221       0.00082020 </v>
   <v>      -0.00005125       0.01365078       0.00548243 </v>
   <v>       0.01364396      -0.00984499       0.01040431 </v>
   <v>      -0.02689627      -0.04017620      -0.03602845 </v>
   <v>       0.00397121      -0.02263946       0.01553093 </v>
   <v>      -0.09791415      -0.04066425       0.02062766 </v>
   <v>      -0.06570326      -0.02185744       0.00479614 </v>
  </varray>
  <varray name="stress" >
   <v>      -3.45136767      -0.22928280      -0.03575863 </v>
   <v>      -0.22928339      -4.50867955      -0.19762469 </v>
   <v>      -0.03575951      -0.19762484      -3.28072098 </v>
  </varray>
  <energy>
   <i name="e_fr_energy">   -124.33810565 </i>
   <i name="e_wo_entrp">   -124.22456487 </i>
   <i name="e_0_energy">   -124.28133526 </i>
  </energy>
  <time name="totalsc">  457.42  457.86</time>
 </calculation>
 <calculation>
  <scstep>
   <time name="dav">   19.61   19.61</time>
   <time name="total">   20.31   20.31</time>
   <energy>
    <i name="alphaZ">    325.71046388 </i>
    <i name="ewald"> -10929.04007903 </i>
    <i name="hartreedc">  -1870.50137628 </i>
    <i name="XCdc">  -1761.22766157 </i>
    <i name="pawpsdc">  15141.07035676 </i>
    <i name="pawaedc"> -12866.30233232 </i>
    <i name="eentropy">     -0.11336007 </i>
    <i name="bandstr">  -1271.58279071 </i>
    <i name="atom">  13117.98845597 </i>
    <i name="e_fr_energy">   -113.99832337 </i>
    <i name="e_wo_entrp">   -113.88496330 </i>
    <i name="e_0_energy">   -113.94164333 </i>
   </energy>
  </scstep>
  <scstep>
   <time name="dav">   20.16   20.16</time>
   <time name="total">   20.89   20.89</time>
   <energy>
    <i name="e_fr_energy">   -114.00684467 </i>
    <i name="e_wo_entrp">   -113.89339359 </i>
    <i name="e_0_energy">   -113.95011913 </i>
   </energy>
  </scstep>
  <scstep>
   <time name="dav">   21.55   21.55</time>
   <time name="total">   22.28   22.28</time>
   <energy>
    <i name="e_fr_energy">   -114.00672639 </i>
    <i name="e_wo_entrp">   -113.89325432 </i>
    <i name="e_0_energy">   -113.94999035 </i>
   </energy>
  </scstep>
  <scstep>
   <time name="dav">   20.78   20.78</time>
   <time name="total">   21.51   21.51</time>
   <energy>
    <i name="e_fr_energy">   -114.00664385 </i>
    <i name="e_wo_entrp">   -113.89317211 </i>
    <i name="e_0_energy">   -113.94990798 </i>
   </energy>
  </scstep>
  <scstep>
   <time name="dav">   20.25   20.25</time>
   <time name="total">   20.98   20.98</time>
   <energy>
    <i name="e_fr_energy">   -114.00659895 </i>
    <i name="e_wo_entrp">   -113.89311806 </i>
    <i name="e_0_energy">   -113.94985851 </i>
   </energy>
  </scstep>
  <scstep>
   <time name="dav">   21.25   21.25</time>
   <time name="total">   21.97   21.97</time>
   <energy>
    <i name="e_fr_energy">   -114.00660300 </i>
    <i name="e_wo_entrp">   -113.89311535 </i>
    <i name="e_0_energy">   -113.94985918 </i>
   </energy>
  </scstep>
  <scstep>
   <time name="dav">   17.15   17.16</time>
   <time name="total">   17.27   17.28</time>
   <energy>
    <i name="alphaZ">    325.71046388 </i>
    <i name="ewald"> -10929.04007903 </i>
    <i name="hartreedc">  -1870.47331815 </i>
    <i name="XCdc">  -1761.22669626 </i>
    <i name="pawpsdc">  15142.09326805 </i>
    <i name="pawaedc"> -12867.32410522 </i>
    <i name="eentropy">     -0.11349049 </i>
    <i name="bandstr">  -1271.62110176 </i>
    <i name="atom">  13117.98845597 </i>
    <i name="e_fr_energy">   -114.00660300 </i>
    <i name="e_wo_entrp">   -113.89311250 </i>
    <i name="e_0_energy">   -113.94985775 </i>
   </energy>
  </scstep>
  <structure>
   <crystal>
    <varray name="basis" >
     <v>      12.57433319       0.00000000       0.00000000 </v>
     <v>       0.00000000      12.57433319       0.00000000 </v>
     <v>       0.00000000       0.00000000      12.57433319 </v>
    </varray>
    <i name="volume">   1988.17629733 </i>
    <varray name="rec_basis" >
     <v>       0.07952708       0.00000000       0.00000000 </v>
     <v>       0.00000000       0.07952708       0.00000000 </v>
     <v>       0.00000000       0.00000000       0.07952708 </v>
    </varray>
   </crystal>
   <varray name="positions" >
    <v>       0.01547317       0.01341654       0.00732177 </v>
    <v>       0.00368265       0.01015230       0.50526184 </v>
    <v>       0.01386040       0.49648810       0.00754243 </v>
    <v>       0.01048533       0.50583377       0.51004358 </v>
    <v>       0.51592680       0.00316638       0.00238822 </v>
    <v>       0.50447480       0.00407332       0.48969612 </v>
    <v>       0.52092005       0.50527631       0.00950612 </v>
    <v>       0.50718458       0.54837095       0.49212713 </v>
    <v>       0.27101458       0.25678235       0.23330039 </v>
    <v>       0.25967025       0.24161740       0.70930554 </v>
    <v>       0.21149195       0.73563786       0.26351359 </v>
    <v>       0.24652186       0.75679015       0.80962071 </v>
    <v>       0.76411717       0.28212998       0.29493083 </v>
    <v>       0.72619747       0.25449365       0.73939035 </v>
    <v>       0.77677367       0.78166479       0.27157560 </v>
    <v>       0.80498343       0.76191578       0.77769514 </v>
    <v>       0.96214588       0.04341244       0.25574012 </v>
    <v>       0.05212110       0.98323203       0.75611592 </v>
    <v>       0.01010023       0.46762653       0.25894784 </v>
    <v>       0.02996652       0.54187347       0.75947285 </v>
    <v>       0.56251571       0.05598431       0.24383645 </v>
    <v>       0.45810376       0.99583759       0.74581390 </v>
    <v>       0.51517794       0.45010870       0.25274757 </v>
    <v>       0.48669437       0.45507922       0.75641582 </v>
    <v>       0.26564888       0.96482381       0.05645619 </v>
    <v>       0.25217978       0.02226411       0.44442084 </v>
    <v>       0.26929831       0.54450660       0.02884617 </v>
    <v>       0.26041054       0.48631738       0.49272474 </v>
    <v>       0.76627558       0.03566453       0.95353692 </v>
    <v>       0.75279817       0.97438239       0.54905181 </v>
    <v>       0.76889715       0.43553901       0.99555577 </v>
    <v>       0.75739769       0.52505995       0.51431911 </v>
    <v>       0.07907992       0.25590155       0.97191188 </v>
    <v>       0.97778768       0.25677157       0.55033882 </v>
    <v>       0.98271855       0.75570526       0.03741264 </v>
    <v>       0.01125544       0.75723903       0.48760936 </v>
    <v>       0.46251797       0.24846324       0.96787721 </v>
    <v>       0.52047492       0.25008538       0.51327903 </v>
    <v>       0.58090481       0.75080623       0.01653848 </v>
    <v>       0.49593619       0.76295228       0.36880233 </v>
    <v>       0.51763033       0.71264522       0.68600886 </v>
   </varray>
  </structure>
  <varray name="forces" >
   <v>      -0.01427308      -0.01272237      -0.00293467 </v>
   <v>       0.00855261      -0.00900373      -0.01428092 </v>
   <v>      -0.00258359       0.00642020      -0.01184705 </v>
   <v>       0.01641977      -0.01016120       0.01590048 </v>
   <v>      -0.00587238      -0.01008159      -0.00070705 </v>
   <v>      -0.00295092      -0.02625461      -0.02266862 </v>
   <v>      -0.01307118      -0.04243813      -0.00376149 </v>
   <v>      -0.00083197       0.00809121       0.02648942 </v>
   <v>       0.01260285      -0.00439860      -0.00265979 </v>
   <v>      -0.01624050      -0.01325088       0.00622814 </v>
   <v>       0.06631660       0.02488341      -0.02895634 </v>
   <v>       0.02467112       0.02887242      -0.01638852 </v>
   <v>      -0.00564572      -0.02157920      -0.01353790 </v>
   <v>       0.03836849      -0.02645599       0.02529507 </v>
   <v>       0.01177139       0.01385844      -0.00968690 </v>
   <v>      -0.01848835       0.02019669      -0.02155944 </v>
   <v>      -0.01622552      -0.00041599      -0.00451282 </v>
   <v>       0.01579448      -0.01345550      -0.00474035 </v>
   <v>       0.01540769       0.00956646      -0.00013675 </v>
   <v>      -0.00333943      -0.01304735       0.00037570 </v>
   <v>       0.00033153       0.00164455       0.01873939 </v>
   <v>      -0.00205129       0.01202713       0.00912642 </v>
   <v>       0.01914949      -0.00184671      -0.00123558 </v>
   <v>       0.04410833       0.10768284       0.03852532 </v>
   <v>       0.00011601      -0.00964693      -0.00569653 </v>
   <v>       0.00419317       0.02069435       0.02856271 </v>
   <v>      -0.00533674      -0.01751927       0.01371773 </v>
   <v>      -0.02276364      -0.00402360      -0.03133632 </v>
   <v>      -0.00285651       0.02572730      -0.01664756 </v>
   <v>       0.00778282       0.02512950      -0.02496286 </v>
   <v>      -0.01419978       0.00698269      -0.00987284 </v>
   <v>      -0.01206016       0.00930580       0.00540041 </v>
   <v>       0.01024544      -0.00824729       0.01568396 </v>
   <v>       0.00060199       0.01591539       0.01428280 </v>
   <v>       0.00912044      -0.01445688       0.00469562 </v>
   <v>      -0.00068388       0.01389666       0.00960127 </v>
   <v>       0.01144244      -0.00853810       0.00138389 </v>
   <v>      -0.02061546      -0.03603084      -0.02656134 </v>
   <v>      -0.00062852      -0.01596061       0.01492581 </v>
   <v>      -0.08022856      -0.03015583       0.02752491 </v>
   <v>      -0.05604946      -0.00120387      -0.00176745 </v>
  </varray>
  <varray name="stress" >
   <v>      -3.47728928      -0.25102525      -0.02841535 </v>
   <v>      -0.25102495      -4.50327672      -0.20820752 </v>
   <v>      -0.02841490      -0.20820833      -3.23571358 </v>
  </varray>
  <energy>
   <i name="e_fr_energy">   -124.34383889 </i>
   <i name="e_wo_entrp">   -124.23034840 </i>
   <i name="e_0_energy">   -124.28709364 </i>
  </energy>
  <time name="totalsc">  180.40  180.54</time>
 </calculation>
 <calculation>
  <scstep>
   <time name="dav">   19.54   19.54</time>
   <time name="total">   20.25   20.25</time>
   <energy>
    <i name="alphaZ">    325.71046388 </i>
    <i name="ewald"> -10929.67242353 </i>
    <i name="hartreedc">  -1869.83983253 </i>
    <i name="XCdc">  -1761.23046133 </i>
    <i name="pawpsdc">  15142.05719409 </i>
    <i name="pawaedc"> -12867.28800139 </i>
    <i name="eentropy">     -0.11318245 </i>
    <i name="bandstr">  -1271.60537599 </i>
    <i name="atom">  13117.98845597 </i>
    <i name="e_fr_energy">   -113.99316326 </i>
    <i name="e_wo_entrp">   -113.87998082 </i>
    <i name="e_0_energy">   -113.93657204 </i>
   </energy>
  </scstep>
  <scstep>
   <time name="dav">   19.86   19.86</time>
   <time name="total">   20.59   20.59</time>
   <energy>
    <i name="e_fr_energy">   -114.01433175 </i>
    <i name="e_wo_entrp">   -113.90099999 </i>
    <i name="e_0_energy">   -113.95766587 </i>
   </energy>
  </scstep>
  <scstep>
   <time name="dav">   21.51   21.51</time>
   <time name="total">   22.23   22.23</time>
   <energy>
    <i name="e_fr_energy">   -114.01402890 </i>
    <i name="e_wo_entrp">   -113.90066516 </i>
    <i name="e_0_energy">   -113.95734703 </i>
   </energy>
  </scstep>
  <scstep>
   <time name="dav">   20.74   20.74</time>
   <time name="total">   21.47   21.47</time>
   <energy>
    <i name="e_fr_energy">   -114.01382712 </i>
    <i name="e_wo_entrp">   -113.90046567 </i>
    <i name="e_0_energy">   -113.95714639 </i>
   </energy>
  </scstep>
  <scstep>
   <time name="dav">   20.26   20.26</time>
   <time name="total">   20.97   20.98</time>
   <energy>
    <i name="e_fr_energy">   -114.01371120 </i>
    <i name="e_wo_entrp">   -113.90033678 </i>
    <i name="e_0_energy">   -113.95702399 </i>
   </energy>
  </scstep>
  <scstep>
   <time name="dav">   21.01   21.01</time>
   <time name="total">   21.73   21.74</time>
   <energy>
    <i name="e_fr_energy">   -114.01372167 </i>
    <i name="e_wo_entrp">   -113.90033654 </i>
    <i name="e_0_energy">   -113.95702910 </i>
   </energy>
  </scstep>
  <scstep>
   <time name="dav">   19.40   19.40</time>
   <time name="total">   19.52   19.52</time>
   <energy>
    <i name="alphaZ">    325.71046388 </i>
    <i name="ewald"> -10929.67242353 </i>
    <i name="hartreedc">  -1869.79449405 </i>
    <i name="XCdc">  -1761.22907679 </i>
    <i name="pawpsdc">  15142.65762525 </i>
    <i name="pawaedc"> -12867.88831672 </i>
    <i name="eentropy">     -0.11339005 </i>
    <i name="bandstr">  -1271.67256544 </i>
    <i name="atom">  13117.98845597 </i>
    <i name="e_fr_energy">   -114.01372147 </i>
    <i name="e_wo_entrp">   -113.90033142 </i>
    <i name="e_0_energy">   -113.95702645 </i>
   </energy>
  </scstep>
  <structure>
   <crystal>
    <varray name="basis" >
     <v>      12.57433319       0.00000000       0.00000000 </v>
     <v>       0.00000000      12.57433319       0.00000000 </v>
     <v>       0.00000000       0.00000000      12.57433319 </v>
    </varray>
    <i name="volume">   1988.17629733 </i>
    <varray name="rec_basis" >
     <v>       0.07952708       0.00000000       0.00000000 </v>
     <v>       0.00000000       0.07952708       0.00000000 </v>
     <v>       0.00000000       0.00000000       0.07952708 </v>
    </varray>
   </crystal>
   <varray name="positions" >
    <v>       0.01550318       0.01336942       0.00739069 </v>
    <v>       0.00375824       0.00982114       0.50533913 </v>
    <v>       0.01385043       0.49658323       0.00753797 </v>
    <v>       0.01060841       0.50538529       0.51060890 </v>
    <v>       0.51612669       0.00347958       0.00259540 </v>
    <v>       0.50451749       0.00338413       0.48925771 </v>
    <v>       0.52055726       0.50471807       0.00923607 </v>
    <v>       0.50699293       0.54900191       0.49214174 </v>
    <v>       0.27136755       0.25660185       0.23363601 </v>
    <v>       0.25938488       0.24150607       0.70912687 </v>
    <v>       0.21134898       0.73660415       0.26381022 </v>
    <v>       0.24698598       0.75718451       0.81032203 </v>
    <v>       0.76416155       0.28194042       0.29417376 </v>
    <v>       0.72527682       0.25410786       0.73917871 </v>
    <v>       0.77735759       0.78173324       0.27143225 </v>
    <v>       0.80458414       0.76168400       0.77770850 </v>
    <v>       0.96210953       0.04325997       0.25585843 </v>
    <v>       0.05271103       0.98271169       0.75625558 </v>
    <v>       0.00991956       0.46747161       0.25925326 </v>
    <v>       0.03015391       0.54133686       0.75981609 </v>
    <v>       0.56304224       0.05597496       0.24418988 </v>
    <v>       0.45780399       0.99690143       0.74603430 </v>
    <v>       0.51569489       0.45011866       0.25242131 </v>
    <v>       0.48677466       0.45803963       0.75651039 </v>
    <v>       0.26593473       0.96462896       0.05655651 </v>
    <v>       0.25224745       0.02140918       0.44449596 </v>
    <v>       0.26915753       0.54459339       0.03008647 </v>
    <v>       0.25985462       0.48661027       0.49209688 </v>
    <v>       0.76657611       0.03640563       0.95306980 </v>
    <v>       0.75289798       0.97457896       0.54920154 </v>
    <v>       0.76867488       0.43594713       0.99467933 </v>
    <v>       0.75702788       0.52471601       0.51491820 </v>
    <v>       0.07949275       0.25584031       0.97227716 </v>
    <v>       0.97771473       0.25679663       0.55088543 </v>
    <v>       0.98291749       0.75554166       0.03759212 </v>
    <v>       0.01034334       0.75716043       0.48837632 </v>
    <v>       0.46280366       0.24885538       0.96785727 </v>
    <v>       0.51965179       0.24944660       0.51243235 </v>
    <v>       0.58157813       0.75076455       0.01597121 </v>
    <v>       0.49513969       0.76243063       0.36762082 </v>
    <v>       0.51620755       0.71384235       0.68504744 </v>
   </varray>
  </structure>
  <varray name="forces" >
   <v>      -0.01223433      -0.00915180      -0.00727978 </v>
   <v>       0.00430143       0.00357630      -0.00957827 </v>
   <v>      -0.00364151      -0.00371964       0.00366166 </v>
   <v>      -0.00558788      -0.00371266      -0.00163868 </v>
   <v>      -0.00071794      -0.02599469      -0.00486359 </v>
   <v>      -0.00485465      -0.01978585      -0.01009743 </v>
   <v>      -0.00832226      -0.01965854       0.01725670 </v>
   <v>       0.00112077      -0.01132882       0.00275484 </v>
   <v>       0.01332464       0.00010261      -0.00287110 </v>
   <v>      -0.00908656      -0.00620875       0.01059275 </v>
   <v>       0.04717868       0.02555925      -0.01812841 </v>
   <v>       0.01650605       0.01945479      -0.00637861 </v>
   <v>      -0.00476950      -0.01440039      -0.00949439 </v>
   <v>       0.03634492      -0.01242327       0.01886047 </v>
   <v>      -0.00165027       0.01078379      -0.00914484 </v>
   <v>      -0.01545616       0.02008732      -0.02044070 </v>
   <v>      -0.01219995      -0.00044110      -0.00208269 </v>
   <v>       0.00665218       0.00185489      -0.00650273 </v>
   <v>       0.00986644       0.01532855      -0.00628367 </v>
   <v>      -0.00126519      -0.01335199      -0.00179311 </v>
   <v>       0.00702607      -0.00917677       0.00883352 </v>
   <v>       0.00738357       0.01054501       0.00917720 </v>
   <v>       0.01143285      -0.00466270       0.01745055 </v>
   <v>       0.03285334       0.03570650       0.02878907 </v>
   <v>      -0.00377944      -0.00058590      -0.00357754 </v>
   <v>      -0.00120251       0.02300885       0.03569800 </v>
   <v>      -0.01125525      -0.03097875       0.00419643 </v>
   <v>      -0.00024720       0.00343424      -0.02278044 </v>
   <v>      -0.01291369       0.00692723      -0.00669720 </v>
   <v>       0.00182396       0.02676902      -0.01949888 </v>
   <v>      -0.00854517       0.00765686      -0.00734085 </v>
   <v>      -0.02059825       0.01333555      -0.00478405 </v>
   <v>       0.02005802      -0.01601863       0.01094217 </v>
   <v>       0.00026465       0.00352168       0.00551408 </v>
   <v>       0.00783560      -0.00605297       0.00199004 </v>
   <v>       0.01942487       0.01055110      -0.00196647 </v>
   <v>       0.00851823      -0.00251315      -0.00684621 </v>
   <v>      -0.02515846      -0.02767715      -0.00929148 </v>
   <v>       0.01061870      -0.00895889       0.00979963 </v>
   <v>      -0.05772889      -0.01874675       0.02259785 </v>
   <v>      -0.04131992       0.02734564      -0.00875383 </v>
  </varray>
  <varray name="stress" >
   <v>      -3.58598143      -0.23984535      -0.04097553 </v>
   <v>      -0.23984520      -4.52733427      -0.25775009 </v>
   <v>      -0.04097451      -0.25775041      -3.23954687 </v>
  </varray>
  <energy>
   <i name="e_fr_energy">   -124.35078155 </i>
   <i name="e_wo_entrp">   -124.23739150 </i>
   <i name="e_0_energy">   -124.29408653 </i>
  </energy>
  <time name="totalsc">  209.93  209.96</time>
 </calculation>
 <calculation>
  <scstep>
   <time name="dav">   19.54   19.54</time>
   <time name="total">   20.19   20.19</time>
   <energy>
    <i name="alphaZ">    325.71046388 </i>
    <i name="ewald"> -10930.38901786 </i>
    <i name="hartreedc">  -1869.06263779 </i>
    <i name="XCdc">  -1761.23028148 </i>
    <i name="pawpsdc">  15142.55497447 </i>
    <i name="pawaedc"> -12867.78564258 </i>
    <i name="eentropy">     -0.11309471 </i>
    <i name="bandstr">  -1271.66792732 </i>
    <i name="atom">  13117.98845597 </i>
    <i name="e_fr_energy">   -113.99470742 </i>
    <i name="e_wo_entrp">   -113.88161271 </i>
    <i name="e_0_energy">   -113.93816007 </i>
   </energy>
  </scstep>
  <scstep>
   <time name="dav">   19.96   19.96</time>
   <time name="total">   20.62   20.63</time>
   <energy>
    <i name="e_fr_energy">   -114.01884831 </i>
    <i name="e_wo_entrp">   -113.90562083 </i>
    <i name="e_0_energy">   -113.96223457 </i>
   </energy>
  </scstep>
  <scstep>
   <time name="dav">   21.72   21.73</time>
   <time name="total">   22.41   22.41</time>
   <energy>
    <i name="e_fr_energy">   -114.01846513 </i>
    <i name="e_wo_entrp">   -113.90521231 </i>
    <i name="e_0_energy">   -113.96183872 </i>
   </energy>
  </scstep>
  <scstep>
   <time name="dav">   20.71   20.71</time>
   <time name="total">   21.44   21.44</time>
   <energy>
    <i name="e_fr_energy">   -114.01822194 </i>
    <i name="e_wo_entrp">   -113.90497247 </i>
    <i name="e_0_energy">   -113.96159720 </i>
   </energy>
  </scstep>
  <scstep>
   <time name="dav">   20.37   20.38</time>
   <time name="total">   21.10   21.10</time>
   <energy>
    <i name="e_fr_energy">   -114.01810196 </i>
    <i name="e_wo_entrp">   -113.90484289 </i>
    <i name="e_0_energy">   -113.96147243 </i>
   </energy>
  </scstep>
  <scstep>
   <time name="dav">   20.95   20.95</time>
   <time name="total">   21.69   21.69</time>
   <energy>
    <i name="e_fr_energy">   -114.01811341 </i>
    <i name="e_wo_entrp">   -113.90484486 </i>
    <i name="e_0_energy">   -113.96147913 </i>
   </energy>
  </scstep>
  <scstep>
   <time name="dav">   19.89   19.89</time>
   <time name="total">   20.01   20.01</time>
   <energy>
    <i name="alphaZ">    325.71046388 </i>
    <i name="ewald"> -10930.38901786 </i>
    <i name="hartreedc">  -1869.02376170 </i>
    <i name="XCdc">  -1761.22854654 </i>
    <i name="pawpsdc">  15144.12705613 </i>
    <i name="pawaedc"> -12869.35869713 </i>
    <i name="eentropy">     -0.11327334 </i>
    <i name="bandstr">  -1271.73079295 </i>
    <i name="atom">  13117.98845597 </i>
    <i name="e_fr_energy">   -114.01811354 </i>
    <i name="e_wo_entrp">   -113.90484020 </i>
    <i name="e_0_energy">   -113.96147687 </i>
   </energy>
  </scstep>
  <structure>
   <crystal>
    <varray name="basis" >
     <v>      12.57433319       0.00000000       0.00000000 </v>
     <v>       0.00000000      12.57433319       0.00000000 </v>
     <v>       0.00000000       0.00000000      12.57433319 </v>
    </varray>
    <i name="volume">   1988.17629733 </i>
    <varray name="rec_basis" >
     <v>       0.07952708       0.00000000       0.00000000 </v>
     <v>       0.00000000       0.07952708       0.00000000 </v>
     <v>       0.00000000       0.00000000       0.07952708 </v>
    </varray>
   </crystal>
   <varray name="positions" >
    <v>       0.01540945       0.01323606       0.00737844 </v>
    <v>       0.00386895       0.00955315       0.50532017 </v>
    <v>       0.01380334       0.49662677       0.00758304 </v>
    <v>       0.01065080       0.50492759       0.51111438 </v>
    <v>       0.51631257       0.00350067       0.00273575 </v>
    <v>       0.50450768       0.00254127       0.48875455 </v>
    <v>       0.52013709       0.50401519       0.00916890 </v>
    <v>       0.50682572       0.54947160       0.49216487 </v>
    <v>       0.27183432       0.25643708       0.23392352 </v>
    <v>       0.25903060       0.24134407       0.70906748 </v>
    <v>       0.21167257       0.73777283       0.26391671 </v>
    <v>       0.24758178       0.75774370       0.81092854 </v>
    <v>       0.76415715       0.28162255       0.29336974 </v>
    <v>       0.72477118       0.25362948       0.73916251 </v>
    <v>       0.77788349       0.78190331       0.27120519 </v>
    <v>       0.80405470       0.76166618       0.77751810 </v>
    <v>       0.96195579       0.04311151       0.25595202 </v>
    <v>       0.05332943       0.98225121       0.75632074 </v>
    <v>       0.00984308       0.46748492       0.25947418 </v>
    <v>       0.03032101       0.54069870       0.76011904 </v>
    <v>       0.56361515       0.05586827       0.24460367 </v>
    <v>       0.45760218       0.99800827       0.74633345 </v>
    <v>       0.51629286       0.45007728       0.25230522 </v>
    <v>       0.48716486       0.46114026       0.75687933 </v>
    <v>       0.26616483       0.96444788       0.05661652 </v>
    <v>       0.25229487       0.02083484       0.44492906 </v>
    <v>       0.26890905       0.54435531       0.03129433 </v>
    <v>       0.25934504       0.48692575       0.49128053 </v>
    <v>       0.76672149       0.03716076       0.95256909 </v>
    <v>       0.75300452       0.97503379       0.54915036 </v>
    <v>       0.76838195       0.43640776       0.99378065 </v>
    <v>       0.75646575       0.52452627       0.51543052 </v>
    <v>       0.08009077       0.25561709       0.97272795 </v>
    <v>       0.97764712       0.25684431       0.55145074 </v>
    <v>       0.98318412       0.75533232       0.03778054 </v>
    <v>       0.00968809       0.75718925       0.48907505 </v>
    <v>       0.46315755       0.24920261       0.96776000 </v>
    <v>       0.51861956       0.24857192       0.51155353 </v>
    <v>       0.58232664       0.75064282       0.01552821 </v>
    <v>       0.49382727       0.76176201       0.36673058 </v>
    <v>       0.51446255       0.71526833       0.68404279 </v>
   </varray>
  </structure>
  <varray name="forces" >
   <v>      -0.00278043       0.00118912      -0.01359441 </v>
   <v>       0.00615690       0.00463243      -0.00435004 </v>
   <v>      -0.00476815      -0.01524518       0.01706283 </v>
   <v>      -0.01516916       0.00830742      -0.01899792 </v>
   <v>       0.00195001      -0.03836920      -0.00716866 </v>
   <v>       0.00618512      -0.00587710       0.00720491 </v>
   <v>       0.00227916       0.01249087       0.03795271 </v>
   <v>      -0.00241587      -0.03459184      -0.01567636 </v>
   <v>       0.01560285       0.00447254      -0.00611486 </v>
   <v>      -0.00351477       0.00749122       0.01102019 </v>
   <v>       0.02239815       0.01766332      -0.01207620 </v>
   <v>       0.00147530       0.00534039       0.00761088 </v>
   <v>       0.00394394      -0.00804015      -0.00539623 </v>
   <v>       0.02457098      -0.00276111       0.00872865 </v>
   <v>      -0.01853794       0.00344073      -0.00457304 </v>
   <v>      -0.01333027       0.01448479      -0.02118648 </v>
   <v>      -0.00900257       0.00364446      -0.00641661 </v>
   <v>      -0.00252268       0.00634432      -0.01350616 </v>
   <v>       0.00646114       0.01617902      -0.00788349 </v>
   <v>       0.00316328      -0.00223203      -0.00061174 </v>
   <v>      -0.00501953      -0.01944864      -0.01193505 </v>
   <v>       0.01047704      -0.00260147       0.00971908 </v>
   <v>       0.01020986      -0.00439747       0.03644826 </v>
   <v>       0.01159042      -0.01962103       0.00496489 </v>
   <v>       0.00040948       0.00405518      -0.00643059 </v>
   <v>      -0.00039166       0.01844130       0.02439667 </v>
   <v>      -0.01522454      -0.02108315       0.00360011 </v>
   <v>       0.01490510      -0.00939323      -0.01356317 </v>
   <v>       0.00118953      -0.00542125      -0.00602371 </v>
   <v>       0.00004753       0.01835823      -0.01647567 </v>
   <v>       0.00903752       0.00733955       0.00106197 </v>
   <v>      -0.01866598       0.01164189      -0.00503076 </v>
   <v>       0.01184537      -0.01394773       0.01503521 </v>
   <v>      -0.00228621      -0.00501797       0.01607761 </v>
   <v>      -0.00162168      -0.00412362      -0.00238868 </v>
   <v>       0.01525163       0.00425288      -0.00582555 </v>
   <v>       0.00244971      -0.00771989      -0.00948690 </v>
   <v>      -0.02682373      -0.00722210       0.00270399 </v>
   <v>      -0.00468783      -0.00362131       0.00525835 </v>
   <v>      -0.01934093       0.00268284       0.01650686 </v>
   <v>      -0.01549611       0.05828300      -0.01064088 </v>
  </varray>
  <varray name="stress" >
   <v>      -3.63159136      -0.24157660      -0.04708913 </v>
   <v>      -0.24157612      -4.50585624      -0.24775710 </v>
   <v>      -0.04708955      -0.24775766      -3.21420296 </v>
  </varray>
  <energy>
   <i name="e_fr_energy">   -124.35516064 </i>
   <i name="e_wo_entrp">   -124.24188729 </i>
   <i name="e_0_energy">   -124.29852397 </i>
  </energy>
  <time name="totalsc">  201.72  202.20</time>
 </calculation>
 <calculation>
  <scstep>
   <time name="dav">   19.45   19.45</time>
   <time name="total">   20.12   20.12</time>
   <energy>
    <i name="alphaZ">    325.71046388 </i>
    <i name="ewald"> -10931.08288091 </i>
    <i name="hartreedc">  -1868.34107830 </i>
    <i name="XCdc">  -1761.23487416 </i>
    <i name="pawpsdc">  15144.06533380 </i>
    <i name="pawaedc"> -12869.29695780 </i>
    <i name="eentropy">     -0.11314614 </i>
    <i name="bandstr">  -1271.69013297 </i>
    <i name="atom">  13117.98845597 </i>
    <i name="e_fr_energy">   -113.99481662 </i>
    <i name="e_wo_entrp">   -113.88167048 </i>
    <i name="e_0_energy">   -113.93824355 </i>
   </energy>
  </scstep>
  <scstep>
   <time name="dav">   19.97   19.98</time>
   <time name="total">   20.63   20.63</time>
   <energy>
    <i name="e_fr_energy">   -114.02112070 </i>
    <i name="e_wo_entrp">   -113.90791834 </i>
    <i name="e_0_energy">   -113.96451952 </i>
   </energy>
  </scstep>
  <scstep>
   <time name="dav">   21.63   21.63</time>
   <time name="total">   22.32   22.33</time>
   <energy>
    <i name="e_fr_energy">   -114.02069160 </i>
    <i name="e_wo_entrp">   -113.90748663 </i>
    <i name="e_0_energy">   -113.96408912 </i>
   </energy>
  </scstep>
  <scstep>
   <time name="dav">   20.58   20.59</time>
   <time name="total">   21.31   21.31</time>
   <energy>
    <i name="e_fr_energy">   -114.02041466 </i>
    <i name="e_wo_entrp">   -113.90721566 </i>
    <i name="e_0_energy">   -113.96381516 </i>
   </energy>
  </scstep>
  <scstep>
   <time name="dav">   21.51   21.51</time>
   <time name="total">   22.25   22.25</time>
   <energy>
    <i name="e_fr_energy">   -114.02030549 </i>
    <i name="e_wo_entrp">   -113.90710608 </i>
    <i name="e_0_energy">   -113.96370579 </i>
   </energy>
  </scstep>
  <scstep>
   <time name="dav">   21.03   21.04</time>
   <time name="total">   21.76   21.76</time>
   <energy>
    <i name="e_fr_energy">   -114.02031492 </i>
    <i name="e_wo_entrp">   -113.90711062 </i>
    <i name="e_0_energy">   -113.96371277 </i>
   </energy>
  </scstep>
  <scstep>
   <time name="dav">   19.35   19.35</time>
   <time name="total">   20.08   20.08</time>
   <energy>
    <i name="e_fr_energy">   -114.02031605 </i>
    <i name="e_wo_entrp">   -113.90710880 </i>
    <i name="e_0_energy">   -113.96371243 </i>
   </energy>
  </scstep>
  <scstep>
   <time name="dav">   14.30   14.30</time>
   <time name="total">   14.41   14.41</time>
   <energy>
    <i name="alphaZ">    325.71046388 </i>
    <i name="ewald"> -10931.08288091 </i>
    <i name="hartreedc">  -1868.32818027 </i>
    <i name="XCdc">  -1761.23154289 </i>
    <i name="pawpsdc">  15143.85802214 </i>
    <i name="pawaedc"> -12869.08894480 </i>
    <i name="eentropy">     -0.11320921 </i>
    <i name="bandstr">  -1271.73250003 </i>
    <i name="atom">  13117.98845597 </i>
    <i name="e_fr_energy">   -114.02031611 </i>
    <i name="e_wo_entrp">   -113.90710690 </i>
    <i name="e_0_energy">   -113.96371151 </i>
   </energy>
  </scstep>
  <structure>
   <crystal>
    <varray name="basis" >
     <v>      12.57433319       0.00000000       0.00000000 </v>
     <v>       0.00000000      12.57433319       0.00000000 </v>
     <v>       0.00000000       0.00000000      12.57433319 </v>
    </varray>
    <i name="volume">   1988.17629733 </i>
    <varray name="rec_basis" >
     <v>       0.07952708       0.00000000       0.00000000 </v>
     <v>       0.00000000       0.07952708       0.00000000 </v>
     <v>       0.00000000       0.00000000       0.07952708 </v>
    </varray>
   </crystal>
   <varray name="positions" >
    <v>       0.01532176       0.01314858       0.00722256 </v>
    <v>       0.00402780       0.00933882       0.50529523 </v>
    <v>       0.01370810       0.49648311       0.00784946 </v>
    <v>       0.01048684       0.50456527       0.51139809 </v>
    <v>       0.51654362       0.00313317       0.00279576 </v>
    <v>       0.50457882       0.00167940       0.48838167 </v>
    <v>       0.51977011       0.50355632       0.00951173 </v>
    <v>       0.50662446       0.54958014       0.49194818 </v>
    <v>       0.27245687       0.25632633       0.23416075 </v>
    <v>       0.25867081       0.24129867       0.70910477 </v>
    <v>       0.21206548       0.73911061       0.26397672 </v>
    <v>       0.24813625       0.75829850       0.81169524 </v>
    <v>       0.76421732       0.28126276       0.29252355 </v>
    <v>       0.72439994       0.25316995       0.73916636 </v>
    <v>       0.77820240       0.78207761       0.27094190 </v>
    <v>       0.80340738       0.76174287       0.77715519 </v>
    <v>       0.96174124       0.04299942       0.25599233 </v>
    <v>       0.05390398       0.98187236       0.75625281 </v>
    <v>       0.00979020       0.46764977       0.25962335 </v>
    <v>       0.03054374       0.54005846       0.76042501 </v>
    <v>       0.56414875       0.05555291       0.24484712 </v>
    <v>       0.45750533       0.99908962       0.74672114 </v>
    <v>       0.51697933       0.44998282       0.25259068 </v>
    <v>       0.48755539       0.46388627       0.75720249 </v>
    <v>       0.26641724       0.96433631       0.05662113 </v>
    <v>       0.25233012       0.02037417       0.44555271 </v>
    <v>       0.26850687       0.54394352       0.03256679 </v>
    <v>       0.25903437       0.48715389       0.49036663 </v>
    <v>       0.76690442       0.03782472       0.95202216 </v>
    <v>       0.75309092       0.97563172       0.54898412 </v>
    <v>       0.76821549       0.43694061       0.99288914 </v>
    <v>       0.75571577       0.52441916       0.51590999 </v>
    <v>       0.08080744       0.25526368       0.97332528 </v>
    <v>       0.97754466       0.25679144       0.55219171 </v>
    <v>       0.98342160       0.75510318       0.03793916 </v>
    <v>       0.00914115       0.75722312       0.48972891 </v>
    <v>       0.46352725       0.24948753       0.96753787 </v>
    <v>       0.51730660       0.24768500       0.51073943 </v>
    <v>       0.58303956       0.75052848       0.01506882 </v>
    <v>       0.49247974       0.76119628       0.36590761 </v>
    <v>       0.51263739       0.71739314       0.68286650 </v>
   </varray>
  </structure>
  <varray name="forces" >
   <v>      -0.00291975       0.00280317      -0.01889898 </v>
   <v>       0.00321504       0.00903428      -0.00067350 </v>
   <v>      -0.00310304      -0.01741418       0.01481450 </v>
   <v>      -0.02121142       0.01546678      -0.01953728 </v>
   <v>       0.00438217      -0.03148205      -0.00750796 </v>
   <v>       0.00325854      -0.00707268       0.01510899 </v>
   <v>       0.01272904       0.02197560       0.03391428 </v>
   <v>      -0.02016563      -0.03164638      -0.01155246 </v>
   <v>       0.01376699       0.00035642      -0.00214322 </v>
   <v>       0.00335681       0.01761157       0.01141800 </v>
   <v>      -0.00773238       0.01178513      -0.00862149 </v>
   <v>      -0.01156262      -0.00943067       0.01678065 </v>
   <v>       0.00858455      -0.00432649       0.00060763 </v>
   <v>       0.00794588       0.00816352      -0.00002078 </v>
   <v>      -0.03101020       0.00217809      -0.00257452 </v>
   <v>      -0.00535605       0.00743504      -0.02126994 </v>
   <v>      -0.00197224       0.00523905      -0.01145630 </v>
   <v>      -0.00194497       0.00786726      -0.00912376 </v>
   <v>      -0.00386003       0.00877033       0.00115375 </v>
   <v>       0.01023292       0.00805043      -0.00186467 </v>
   <v>      -0.01697079      -0.02494413      -0.02260653 </v>
   <v>       0.02349354      -0.00614367      -0.00070931 </v>
   <v>       0.01645311      -0.01002134       0.04397963 </v>
   <v>       0.00314006      -0.04603387      -0.01241337 </v>
   <v>       0.00082907       0.00883328      -0.00724910 </v>
   <v>      -0.00002375       0.02353357       0.00701028 </v>
   <v>      -0.00059988      -0.02039233      -0.00044418 </v>
   <v>       0.01063071      -0.00178104      -0.01784809 </v>
   <v>       0.01064029      -0.01512750       0.00099013 </v>
   <v>      -0.00471732       0.01952705      -0.01112401 </v>
   <v>       0.01290740       0.00249486       0.01436562 </v>
   <v>       0.00026885       0.00577375       0.01321770 </v>
   <v>       0.00692713      -0.01103866       0.01691569 </v>
   <v>      -0.00090243      -0.00924924       0.01047691 </v>
   <v>      -0.00733168       0.00455052      -0.01267151 </v>
   <v>       0.01237031      -0.01154776      -0.01118633 </v>
   <v>       0.00141601      -0.01119534      -0.00620871 </v>
   <v>      -0.01639685       0.00726306       0.01912154 </v>
   <v>      -0.02405314      -0.00180794       0.01067431 </v>
   <v>       0.00755162       0.00948629       0.00626434 </v>
   <v>       0.00773410       0.06245620      -0.01910794 </v>
  </varray>
  <varray name="stress" >
   <v>      -3.57123418      -0.24134681      -0.04073162 </v>
   <v>      -0.24134711      -4.49619692      -0.30999115 </v>
   <v>      -0.04073157      -0.30999072      -3.18302823 </v>
  </varray>
  <energy>
   <i name="e_fr_energy">   -124.35749765 </i>
   <i name="e_wo_entrp">   -124.24428844 </i>
   <i name="e_0_energy">   -124.30089304 </i>
  </energy>
  <time name="totalsc">  192.72  193.05</time>
 </calculation>
 <calculation>
  <scstep>
   <time name="dav">   19.36   19.36</time>
   <time name="total">   20.02   20.02</time>
   <energy>
    <i name="alphaZ">    325.71046388 </i>
    <i name="ewald"> -10931.62499536 </i>
    <i name="hartreedc">  -1867.84393722 </i>
    <i name="XCdc">  -1761.24887724 </i>
    <i name="pawpsdc">  15143.87263495 </i>
    <i name="pawaedc"> -12869.10352281 </i>
    <i name="eentropy">     -0.11330566 </i>
    <i name="bandstr">  -1271.61999782 </i>
    <i name="atom">  13117.98845597 </i>
    <i name="e_fr_energy">   -113.98308130 </i>
    <i name="e_wo_entrp">   -113.86977564 </i>
    <i name="e_0_energy">   -113.92642847 </i>
   </energy>
  </scstep>
  <scstep>
   <time name="dav">   19.77   19.77</time>
   <time name="total">   20.49   20.49</time>
   <energy>
    <i name="e_fr_energy">   -114.02148108 </i>
    <i name="e_wo_entrp">   -113.90817764 </i>
    <i name="e_0_energy">   -113.96482936 </i>
   </energy>
  </scstep>
  <scstep>
   <time name="dav">   21.45   21.46</time>
   <time name="total">   22.19   22.19</time>
   <energy>
    <i name="e_fr_energy">   -114.02091606 </i>
    <i name="e_wo_entrp">   -113.90763033 </i>
    <i name="e_0_energy">   -113.96427320 </i>
   </energy>
  </scstep>
  <scstep>
   <time name="dav">   20.72   20.72</time>
   <time name="total">   21.44   21.44</time>
   <energy>
    <i name="e_fr_energy">   -114.02054752 </i>
    <i name="e_wo_entrp">   -113.90727167 </i>
    <i name="e_0_energy">   -113.96390959 </i>
   </energy>
  </scstep>
  <scstep>
   <time name="dav">   21.00   21.00</time>
   <time name="total">   21.72   21.72</time>
   <energy>
    <i name="e_fr_energy">   -114.02035585 </i>
    <i name="e_wo_entrp">   -113.90708706 </i>
    <i name="e_0_energy">   -113.96372145 </i>
   </energy>
  </scstep>
  <scstep>
   <time name="dav">   20.92   20.92</time>
   <time name="total">   21.66   21.66</time>
   <energy>
    <i name="e_fr_energy">   -114.02036741 </i>
    <i name="e_wo_entrp">   -113.90710092 </i>
    <i name="e_0_energy">   -113.96373416 </i>
   </energy>
  </scstep>
  <scstep>
   <time name="dav">   21.10   21.11</time>
   <time name="total">   21.84   21.84</time>
   <energy>
    <i name="e_fr_energy">   -114.02036966 </i>
    <i name="e_wo_entrp">   -113.90710150 </i>
    <i name="e_0_energy">   -113.96373558 </i>
   </energy>
  </scstep>
  <scstep>
   <time name="dav">   14.90   14.90</time>
   <time name="total">   15.02   15.02</time>
   <energy>
    <i name="alphaZ">    325.71046388 </i>
    <i name="ewald"> -10931.62499536 </i>
    <i name="hartreedc">  -1867.85400375 </i>
    <i name="XCdc">  -1761.24328563 </i>
    <i name="pawpsdc">  15140.46607142 </i>
    <i name="pawaedc"> -12865.69300946 </i>
    <i name="eentropy">     -0.11327014 </i>
    <i name="bandstr">  -1271.65679681 </i>
    <i name="atom">  13117.98845597 </i>
    <i name="e_fr_energy">   -114.02036987 </i>
    <i name="e_wo_entrp">   -113.90709973 </i>
    <i name="e_0_energy">   -113.96373480 </i>
   </energy>
  </scstep>
  <structure>
   <crystal>
    <varray name="basis" >
[...]
       <r>    0.4686    1.0000 </r>
       <r>    0.4830    1.0000 </r>
       <r>    0.4971    1.0000 </r>
       <r>    0.5067    1.0000 </r>
       <r>    0.5527    1.0000 </r>
       <r>    0.5758    1.0000 </r>
       <r>    0.6579    1.0000 </r>
       <r>    0.7133    1.0000 </r>
       <r>    0.8501    1.0000 </r>
       <r>    1.4054    0.5209 </r>
       <r>    3.7630    0.0000 </r>
       <r>    3.8641    0.0000 </r>
       <r>    3.9225    0.0000 </r>
       <r>    3.9322    0.0000 </r>
       <r>    4.0474    0.0000 </r>
       <r>    4.0885    0.0000 </r>
       <r>    4.1098    0.0000 </r>
       <r>    4.1615    0.0000 </r>
       <r>    4.2114    0.0000 </r>
       <r>    4.2444    0.0000 </r>
       <r>    4.3052    0.0000 </r>
       <r>    4.6905    0.0000 </r>
       <r>    4.8724    0.0000 </r>
       <r>    5.1279    0.0000 </r>
       <r>    5.1696    0.0000 </r>
       <r>    5.2234    0.0000 </r>
       <r>    5.2491    0.0000 </r>
       <r>    5.3099    0.0000 </r>
       <r>    5.3367    0.0000 </r>
       <r>    5.3798    0.0000 </r>
       <r>    5.4136    0.0000 </r>
       <r>    5.4384    0.0000 </r>
       <r>    5.5192    0.0000 </r>
       <r>    5.6699    0.0000 </r>
       <r>    5.8679    0.0000 </r>
       <r>    6.0349    0.0000 </r>
       <r>    6.1047    0.0000 </r>
       <r>    6.1366    0.0000 </r>
       <r>    6.1872    0.0000 </r>
       <r>    6.2418    0.0000 </r>
      </set>
     </set>
    </set>
   </array>
  </eigenvalues>
  <separator name="orbital magnetization" >
   <v name="MAGDIPOLOUT">      0.00000000      0.00000000      0.00000000</v>
  </separator>
  <dos>
   <i name="efermi">      1.41279583 </i>
   <total>
    <array>
     <dimension dim="1">gridpoints</dimension>
     <dimension dim="2">spin</dimension>
     <field>energy</field>
     <field>total</field>
     <field>integrated</field>
     <set>
      <set comment="spin 1">
       <r>   -21.6221     0.0000     0.0000 </r>
       <r>   -21.5223     0.0000     0.0000 </r>
       <r>   -21.4224     0.0000     0.0000 </r>
       <r>   -21.3225     0.0000     0.0000 </r>
       <r>   -21.2226     0.0000     0.0000 </r>
       <r>   -21.1227     0.0000     0.0000 </r>
       <r>   -21.0229     0.0000     0.0000 </r>
       <r>   -20.9230     0.0000     0.0000 </r>
       <r>   -20.8231     0.0000     0.0000 </r>
       <r>   -20.7232     0.0000     0.0000 </r>
       <r>   -20.6234     0.0000     0.0000 </r>
       <r>   -20.5235     0.0000     0.0000 </r>
       <r>   -20.4236     0.0000     0.0000 </r>
       <r>   -20.3237     0.0000     0.0000 </r>
       <r>   -20.2238     0.0003     0.0000 </r>
       <r>   -20.1240     0.0055     0.0006 </r>
       <r>   -20.0241     0.0702     0.0076 </r>
       <r>   -19.9242     0.5783     0.0653 </r>
       <r>   -19.8243     3.0989     0.3749 </r>
       <r>   -19.7244    10.9111     1.4647 </r>
       <r>   -19.6246    25.3928     4.0009 </r>
       <r>   -19.5247    39.1028     7.9065 </r>
       <r>   -19.4248    39.6813    11.8698 </r>
       <r>   -19.3249    26.3259    14.4992 </r>
       <r>   -19.2250    11.3059    15.6285 </r>
       <r>   -19.1252     3.1117    15.9393 </r>
       <r>   -19.0253     0.5439    15.9936 </r>
       <r>   -18.9254     0.0599    15.9996 </r>
       <r>   -18.8255     0.0041    16.0000 </r>
       <r>   -18.7256     0.0002    16.0000 </r>
       <r>   -18.6258     0.0000    16.0000 </r>
       <r>   -18.5259     0.0000    16.0000 </r>
       <r>   -18.4260     0.0000    16.0000 </r>
       <r>   -18.3261     0.0000    16.0000 </r>
       <r>   -18.2262     0.0000    16.0000 </r>
       <r>   -18.1264     0.0000    16.0000 </r>
       <r>   -18.0265     0.0000    16.0000 </r>
       <r>   -17.9266     0.0000    16.0000 </r>
       <r>   -17.8267     0.0000    16.0000 </r>
       <r>   -17.7268     0.0000    16.0000 </r>
       <r>   -17.6270     0.0000    16.0000 </r>
       <r>   -17.5271     0.0000    16.0000 </r>
       <r>   -17.4272     0.0000    16.0000 </r>
       <r>   -17.3273     0.0000    16.0000 </r>
       <r>   -17.2274     0.0000    16.0000 </r>
       <r>   -17.1276     0.0000    16.0000 </r>
       <r>   -17.0277     0.0000    16.0000 </r>
       <r>   -16.9278     0.0000    16.0000 </r>
       <r>   -16.8279     0.0000    16.0000 </r>
       <r>   -16.7280     0.0000    16.0000 </r>
       <r>   -16.6282     0.0000    16.0000 </r>
       <r>   -16.5283     0.0000    16.0000 </r>
       <r>   -16.4284     0.0000    16.0000 </r>
       <r>   -16.3285     0.0000    16.0000 </r>
       <r>   -16.2286     0.0000    16.0000 </r>
       <r>   -16.1288     0.0000    16.0000 </r>
       <r>   -16.0289     0.0000    16.0000 </r>
       <r>   -15.9290     0.0000    16.0000 </r>
       <r>   -15.8291     0.0000    16.0000 </r>
       <r>   -15.7292     0.0000    16.0000 </r>
       <r>   -15.6294     0.0000    16.0000 </r>
       <r>   -15.5295     0.0000    16.0000 </r>
       <r>   -15.4296     0.0000    16.0000 </r>
       <r>   -15.3297     0.0000    16.0000 </r>
       <r>   -15.2299     0.0000    16.0000 </r>
       <r>   -15.1300     0.0000    16.0000 </r>
       <r>   -15.0301     0.0000    16.0000 </r>
       <r>   -14.9302     0.0000    16.0000 </r>
       <r>   -14.8303     0.0000    16.0000 </r>
       <r>   -14.7305     0.0000    16.0000 </r>
       <r>   -14.6306     0.0000    16.0000 </r>
       <r>   -14.5307     0.0000    16.0000 </r>
       <r>   -14.4308     0.0000    16.0000 </r>
       <r>   -14.3309     0.0000    16.0000 </r>
       <r>   -14.2311     0.0000    16.0000 </r>
       <r>   -14.1312     0.0000    16.0000 </r>
       <r>   -14.0313     0.0000    16.0000 </r>
       <r>   -13.9314     0.0000    16.0000 </r>
       <r>   -13.8315     0.0000    16.0000 </r>
       <r>   -13.7317     0.0000    16.0000 </r>
       <r>   -13.6318     0.0000    16.0000 </r>
       <r>   -13.5319     0.0000    16.0000 </r>
       <r>   -13.4320     0.0000    16.0000 </r>
       <r>   -13.3321     0.0000    16.0000 </r>
       <r>   -13.2323     0.0000    16.0000 </r>
       <r>   -13.1324     0.0000    16.0000 </r>
       <r>   -13.0325     0.0000    16.0000 </r>
       <r>   -12.9326     0.0000    16.0000 </r>
       <r>   -12.8327     0.0000    16.0000 </r>
       <r>   -12.7329     0.0000    16.0000 </r>
       <r>   -12.6330     0.0000    16.0000 </r>
       <r>   -12.5331     0.0000    16.0000 </r>
       <r>   -12.4332     0.0000    16.0000 </r>
       <r>   -12.3333     0.0000    16.0000 </r>
       <r>   -12.2335     0.0000    16.0000 </r>
       <r>   -12.1336     0.0000    16.0000 </r>
       <r>   -12.0337     0.0000    16.0000 </r>
       <r>   -11.9338     0.0000    16.0000 </r>
       <r>   -11.8339     0.0000    16.0000 </r>
       <r>   -11.7341     0.0000    16.0000 </r>
       <r>   -11.6342     0.0000    16.0000 </r>
       <r>   -11.5343     0.0000    16.0000 </r>
       <r>   -11.4344     0.0000    16.0000 </r>
       <r>   -11.3345     0.0011    16.0001 </r>
       <r>   -11.2347     0.0149    16.0016 </r>
       <r>   -11.1348     0.1314    16.0147 </r>
       <r>   -11.0349     0.7382    16.0885 </r>
       <r>   -10.9350     2.7133    16.3595 </r>
       <r>   -10.8351     6.8834    17.0470 </r>
       <r>   -10.7353    13.1690    18.3623 </r>
       <r>   -10.6354    21.1725    20.4770 </r>
       <r>   -10.5355    30.9646    23.5697 </r>
       <r>   -10.4356    42.9998    27.8645 </r>
       <r>   -10.3358    58.4058    33.6981 </r>
       <r>   -10.2359    75.3245    41.2214 </r>
       <r>   -10.1360    83.7421    49.5856 </r>
       <r>   -10.0361    73.7431    56.9510 </r>
       <r>    -9.9362    49.8024    61.9252 </r>
       <r>    -9.8364    25.9928    64.5214 </r>
       <r>    -9.7365    10.6090    65.5810 </r>
       <r>    -9.6366     3.3153    65.9121 </r>
       <r>    -9.5367     0.7508    65.9871 </r>
       <r>    -9.4368     0.1162    65.9987 </r>
       <r>    -9.3370     0.0118    65.9999 </r>
       <r>    -9.2371     0.0008    66.0000 </r>
       <r>    -9.1372     0.0000    66.0000 </r>
       <r>    -9.0373     0.0000    66.0000 </r>
       <r>    -8.9374     0.0000    66.0000 </r>
       <r>    -8.8376     0.0000    66.0000 </r>
       <r>    -8.7377     0.0000    66.0000 </r>
       <r>    -8.6378     0.0000    66.0000 </r>
       <r>    -8.5379     0.0000    66.0000 </r>
       <r>    -8.4380     0.0000    66.0000 </r>
       <r>    -8.3382     0.0000    66.0000 </r>
       <r>    -8.2383     0.0000    66.0000 </r>
       <r>    -8.1384     0.0000    66.0000 </r>
       <r>    -8.0385     0.0000    66.0000 </r>
       <r>    -7.9386     0.0000    66.0000 </r>
       <r>    -7.8388     0.0000    66.0000 </r>
       <r>    -7.7389     0.0000    66.0000 </r>
       <r>    -7.6390     0.0000    66.0000 </r>
       <r>    -7.5391     0.0000    66.0000 </r>
       <r>    -7.4392     0.0002    66.0000 </r>
       <r>    -7.3394     0.0021    66.0002 </r>
       <r>    -7.2395     0.0193    66.0022 </r>
       <r>    -7.1396     0.1178    66.0139 </r>
       <r>    -7.0397     0.5023    66.0641 </r>
       <r>    -6.9398     1.5453    66.2184 </r>
       <r>    -6.8400     3.7037    66.5884 </r>
       <r>    -6.7401     8.2563    67.4130 </r>
       <r>    -6.6402    20.3826    69.4488 </r>
       <r>    -6.5403    50.0394    74.4467 </r>
       <r>    -6.4404    97.9601    84.2309 </r>
       <r>    -6.3406   136.7295    97.8874 </r>
       <r>    -6.2407   132.0672   111.0782 </r>
       <r>    -6.1408    90.1209   120.0795 </r>
       <r>    -6.0409    47.6852   124.8423 </r>
       <r>    -5.9410    23.7501   127.2144 </r>
       <r>    -5.8412    13.1171   128.5245 </r>
       <r>    -5.7413     7.6671   129.2903 </r>
       <r>    -5.6414     4.1815   129.7080 </r>
       <r>    -5.5415     1.9456   129.9023 </r>
       <r>    -5.4417     0.7241   129.9746 </r>
       <r>    -5.3418     0.2049   129.9951 </r>
       <r>    -5.2419     0.0423   129.9993 </r>
       <r>    -5.1420     0.0061   129.9999 </r>
       <r>    -5.0421     0.0006   130.0000 </r>
       <r>    -4.9423     0.0000   130.0000 </r>
       <r>    -4.8424     0.0000   130.0000 </r>
       <r>    -4.7425     0.0000   130.0000 </r>
       <r>    -4.6426     0.0000   130.0000 </r>
       <r>    -4.5427     0.0000   130.0000 </r>
       <r>    -4.4429     0.0000   130.0000 </r>
       <r>    -4.3430     0.0000   130.0000 </r>
       <r>    -4.2431     0.0000   130.0000 </r>
       <r>    -4.1432     0.0000   130.0000 </r>
       <r>    -4.0433     0.0000   130.0000 </r>
       <r>    -3.9435     0.0000   130.0000 </r>
       <r>    -3.8436     0.0000   130.0000 </r>
       <r>    -3.7437     0.0000   130.0000 </r>
       <r>    -3.6438     0.0000   130.0000 </r>
       <r>    -3.5439     0.0000   130.0000 </r>
       <r>    -3.4441     0.0000   130.0000 </r>
       <r>    -3.3442     0.0000   130.0000 </r>
       <r>    -3.2443     0.0000   130.0000 </r>
       <r>    -3.1444     0.0000   130.0000 </r>
       <r>    -3.0445     0.0000   130.0000 </r>
       <r>    -2.9447     0.0000   130.0000 </r>
       <r>    -2.8448     0.0000   130.0000 </r>
       <r>    -2.7449     0.0000   130.0000 </r>
       <r>    -2.6450     0.0001   130.0000 </r>
       <r>    -2.5451     0.0011   130.0001 </r>
       <r>    -2.4453     0.0157   130.0017 </r>
       <r>    -2.3454     0.1385   130.0155 </r>
       <r>    -2.2455     0.7824   130.0937 </r>
       <r>    -2.1456     2.9020   130.3835 </r>
       <r>    -2.0457     7.3363   131.1163 </r>
       <r>    -1.9459    13.4270   132.4574 </r>
       <r>    -1.8460    19.4397   134.3990 </r>
       <r>    -1.7461    24.6998   136.8660 </r>
       <r>    -1.6462    29.7685   139.8392 </r>
       <r>    -1.5463    34.5159   143.2867 </r>
       <r>    -1.4465    36.9648   146.9787 </r>
       <r>    -1.3466    34.6424   150.4388 </r>
       <r>    -1.2467    27.7949   153.2149 </r>
       <r>    -1.1468    20.7579   155.2882 </r>
       <r>    -1.0469    19.4118   157.2271 </r>
       <r>    -0.9471    26.6762   159.8915 </r>
       <r>    -0.8472    39.1695   163.8037 </r>
       <r>    -0.7473    49.1057   168.7084 </r>
       <r>    -0.6474    51.4369   173.8459 </r>
       <r>    -0.5476    48.4654   178.6866 </r>
       <r>    -0.4477    46.4477   183.3257 </r>
       <r>    -0.3478    49.1378   188.2336 </r>
       <r>    -0.2479    56.4429   193.8711 </r>
       <r>    -0.1480    67.1489   200.5779 </r>
       <r>    -0.0482    79.4971   208.5180 </r>
       <r>     0.0517    90.8263   217.5897 </r>
       <r>     0.1516    98.7381   227.4517 </r>
       <r>     0.2515   101.3522   237.5747 </r>
       <r>     0.3514    97.4425   247.3072 </r>
       <r>     0.4512    87.6651   256.0632 </r>
       <r>     0.5511    73.3960   263.3939 </r>
       <r>     0.6510    55.9161   268.9788 </r>
       <r>     0.7509    38.3937   272.8136 </r>
       <r>     0.8508    24.3733   275.2480 </r>
       <r>     0.9506    14.5376   276.7000 </r>
       <r>     1.0505     7.8729   277.4863 </r>
       <r>     1.1504     4.0376   277.8896 </r>
       <r>     1.2503     3.1717   278.2064 </r>
       <r>     1.3502     4.4651   278.6523 </r>
       <r>     1.4500     5.5645   279.2081 </r>
       <r>     1.5499     4.5897   279.6665 </r>
       <r>     1.6498     2.3858   279.9048 </r>
       <r>     1.7497     0.7747   279.9822 </r>
       <r>     1.8496     0.1567   279.9979 </r>
       <r>     1.9494     0.0197   279.9998 </r>
       <r>     2.0493     0.0015   280.0000 </r>
       <r>     2.1492     0.0001   280.0000 </r>
       <r>     2.2491     0.0000   280.0000 </r>
       <r>     2.3490     0.0000   280.0000 </r>
       <r>     2.4488     0.0000   280.0000 </r>
       <r>     2.5487     0.0003   280.0000 </r>
       <r>     2.6486     0.0041   280.0004 </r>
       <r>     2.7485     0.0398   280.0044 </r>
       <r>     2.8484     0.2533   280.0297 </r>
       <r>     2.9482     1.0678   280.1364 </r>
       <r>     3.0481     3.0589   280.4419 </r>
       <r>     3.1480     6.2265   281.0638 </r>
       <r>     3.2479     9.6315   282.0258 </r>
       <r>     3.3478    12.0953   283.2338 </r>
       <r>     3.4476    12.6784   284.5002 </r>
       <r>     3.5475    11.3245   285.6312 </r>
       <r>     3.6474    10.0684   286.6369 </r>
       <r>     3.7473    11.7522   287.8107 </r>
       <r>     3.8472    16.4971   289.4584 </r>
       <r>     3.9470    21.4870   291.6045 </r>
       <r>     4.0469    24.6495   294.0665 </r>
       <r>     4.1468    25.7935   296.6427 </r>
       <r>     4.2467    24.3997   299.0798 </r>
       <r>     4.3466    19.7962   301.0570 </r>
       <r>     4.4464    13.4182   302.3972 </r>
       <r>     4.5463     7.9138   303.1876 </r>
       <r>     4.6462     4.6041   303.6475 </r>
       <r>     4.7461     3.4280   303.9899 </r>
       <r>     4.8459     4.2034   304.4097 </r>
       <r>     4.9458     7.0751   305.1164 </r>
       <r>     5.0457    12.1200   306.3269 </r>
       <r>     5.1456    18.7369   308.1983 </r>
       <r>     5.2455    25.1748   310.7128 </r>
       <r>     5.3453    29.0874   313.6180 </r>
       <r>     5.4452    29.0282   316.5174 </r>
       <r>     5.5451    25.5298   319.0673 </r>
       <r>     5.6450    21.1108   321.1758 </r>
       <r>     5.7449    18.8130   323.0548 </r>
       <r>     5.8447    20.2899   325.0814 </r>
       <r>     5.9446    25.1488   327.5932 </r>
       <r>     6.0445    30.8656   330.6761 </r>
       <r>     6.1444    33.0381   333.9759 </r>
       <r>     6.2443    28.4007   336.8125 </r>
       <r>     6.3441    18.6658   338.6769 </r>
       <r>     6.4440     9.0923   339.5850 </r>
       <r>     6.5439     3.2037   339.9050 </r>
       <r>     6.6438     0.7974   339.9846 </r>
       <r>     6.7437     0.1367   339.9983 </r>
       <r>     6.8435     0.0158   339.9999 </r>
       <r>     6.9434     0.0012   340.0000 </r>
       <r>     7.0433     0.0001   340.0000 </r>
       <r>     7.1432     0.0000   340.0000 </r>
       <r>     7.2431     0.0000   340.0000 </r>
       <r>     7.3429     0.0000   340.0000 </r>
       <r>     7.4428     0.0000   340.0000 </r>
       <r>     7.5427     0.0000   340.0000 </r>
       <r>     7.6426     0.0000   340.0000 </r>
       <r>     7.7425     0.0000   340.0000 </r>
       <r>     7.8423     0.0000   340.0000 </r>
       <r>     7.9422     0.0000   340.0000 </r>
       <r>     8.0421     0.0000   340.0000 </r>
       <r>     8.1420     0.0000   340.0000 </r>
       <r>     8.2419     0.0000   340.0000 </r>
       <r>     8.3417     0.0000   340.0000 </r>
      </set>
     </set>
    </array>
   </total>
  </dos>
 </calculation>
 <structure name="finalpos" >
  <crystal>
   <varray name="basis" >
    <v>      12.57433319       0.00000000       0.00000000 </v>
    <v>       0.00000000      12.57433319       0.00000000 </v>
    <v>       0.00000000       0.00000000      12.57433319 </v>
   </varray>
   <i name="volume">   1988.17629733 </i>
   <varray name="rec_basis" >
    <v>       0.07952708       0.00000000       0.00000000 </v>
    <v>       0.00000000       0.07952708       0.00000000 </v>
    <v>       0.00000000       0.00000000       0.07952708 </v>
   </varray>
  </crystal>
  <varray name="positions" >
   <v>       0.01588069       0.01090855       0.00400939 </v>
   <v>       0.00645886       0.00774716       0.50328635 </v>
   <v>       0.01749371       0.49444658       0.00707636 </v>
   <v>       0.01151993       0.50433952       0.51079975 </v>
   <v>       0.51737490      -0.00236977       0.00102869 </v>
   <v>       0.50524761      -0.00105719       0.48833450 </v>
   <v>       0.52360475       0.49925839       0.01138718 </v>
   <v>       0.50725191       0.54568666       0.49536674 </v>
   <v>       0.28845396       0.25630963       0.23427083 </v>
   <v>       0.25771527       0.24310148       0.71247288 </v>
   <v>       0.21194340       0.74209846       0.26474304 </v>
   <v>       0.25220488       0.75640189       0.82380568 </v>
   <v>       0.76985362       0.26982963       0.30275946 </v>
   <v>       0.72675519       0.24997686       0.73974583 </v>
   <v>       0.77734913       0.77016905       0.26278261 </v>
   <v>       0.80577448       0.75630874       0.76789962 </v>
   <v>       0.96143058       0.03158162       0.25339337 </v>
   <v>       0.05789366       0.98056533       0.75364043 </v>
   <v>      -0.01003322       0.48310730       0.25897304 </v>
   <v>       0.04892050       0.53375134       0.75923237 </v>
   <v>       0.56291939       0.05138804       0.24353818 </v>
   <v>       0.45878981       0.99694838       0.74632161 </v>
   <v>       0.53586468       0.45168222       0.25575361 </v>
   <v>       0.48448556       0.46107187       0.75909120 </v>
   <v>       0.26783965       0.96545389       0.05698221 </v>
   <v>       0.25296797       0.02361880       0.44509274 </v>
   <v>       0.27186802       0.53655880       0.04392763 </v>
   <v>       0.26060697       0.48330793       0.47549660 </v>
   <v>       0.76815902       0.02775327       0.94802530 </v>
   <v>       0.75360951       0.97844392       0.54487518 </v>
   <v>       0.77196828       0.44050814       0.98379167 </v>
   <v>       0.75749803       0.52014899       0.53444510 </v>
   <v>       0.08486776       0.25265329       0.98170818 </v>
   <v>       0.98087421       0.25529698       0.54976526 </v>
   <v>       0.98828823       0.75308718       0.02900824 </v>
   <v>       0.00673792       0.75574955       0.48864498 </v>
   <v>       0.47039362       0.24491521       0.96677765 </v>
   <v>       0.51488282       0.24571223       0.51306046 </v>
   <v>       0.57738664       0.74590160       0.01264107 </v>
   <v>       0.49423840       0.75844437       0.36902099 </v>
   <v>       0.51062471       0.71700154       0.68402404 </v>
  </varray>
 </structure>
</modeling>
