 vasp.6.4.3 19Mar24 (build Jan  2 2025 14:32:07) complex                         
 executed on             LinuxGNU date 2025.10.31  13:12:09
 running   64 mpi-ranks, with    1 threads/rank, on    1 nodes
 distrk:  each k-point on   64 cores,    1 groups
 distr:  one band on NCORE=   2 cores,   32 groups


--------------------------------------------------------------------------------------------------------


 INCAR:
   SYSTEM = Cubic CsPbI3 + I_i(0) defect in relaxed 40 atom supercell
   ISTART = 1
   ICHARG = 1
   GGA = PE
   IVDW = 12
   ENCUT = 400
   ALGO = Normal
   NELM = 60
   EDIFF = 1E-6
   ISMEAR = 0
   SIGMA = 0.2
   LREAL = Auto	
   ISYM = 0
   ISIF = 2
   IBRION = 2
   NSW = 300
   EDIFFG = -0.005
   NCORE = 2

 POTCAR:    PAW_PBE Pb 08Apr2002                  
 POTCAR:    PAW_PBE Cs_sv 25Jan2019               
 POTCAR:    PAW_PBE I 08Apr2002                   
 POTCAR:    PAW_PBE Pb 08Apr2002                  
   SHA256 =  797118a27cf1bcd06b9881c67a26cdde129e3cd1a551dd4a281f9681ce847303 Pb/POTCAR             
   COPYR  = (c) Copyright 08Apr2002 Georg Kresse                                                    
   COPYR  = This file is part of the software VASP. Any use, copying, and all other rights are regul
   COPYR  = If you do not have a valid VASP license, you may not use, copy or distribute this file. 
   VRHFIN =Pb:                                                                                      
   LEXCH  = PE                                                                                      
   EATOM  =    96.9868 eV,    7.1283 Ry                                                             
                                                                                                    
   TITEL  = PAW_PBE Pb 08Apr2002                                                                    
   LULTRA =        F    use ultrasoft PP ?                                                          
   IUNSCR =        1    unscreen: 0-lin 1-nonlin 2-no                                               
   RPACOR =    2.200    partial core radius                                                         
   POMASS =  207.200; ZVAL   =    4.000    mass and valenz                                          
   RCORE  =    3.100    outmost cutoff radius                                                       
   RWIGS  =    3.260; RWIGS  =    1.725    wigner-seitz radius (au A)                               
   ENMAX  =   97.973; ENMIN  =   73.480 eV                                                          
   ICORE  =        3    local potential                                                             
   LCOR   =        T    correct aug charges                                                         
   LPAW   =        T    paw PP                                                                      
   EAUG   =  234.873                                                                                
   DEXC   =    0.000                                                                                
   RMAX   =    3.158    core radius for proj-oper                                                   
   RAUG   =    1.300    factor for augmentation sphere                                              
   RDEP   =    3.202    radius for radial grids                                                     
   RDEPT  =    2.659    core radius for aug-charge                                                  
                                                                                                    
   Atomic configuration                                                                             
   17 entries                                                                                       
     n  l   j            E        occ.                                                              
     1  0  0.50    -88091.8466   2.0000                                                             
     2  0  0.50    -15753.4197   2.0000                                                             
     2  1  1.50    -13508.1797   6.0000                                                             
     3  0  0.50     -3781.7194   2.0000                                                             
     3  1  1.50     -3138.2529   6.0000                                                             
     3  2  2.50     -2483.2977  10.0000                                                             
     4  0  0.50      -856.2895   2.0000                                                             
     4  1  1.50      -645.4943   6.0000                                                             
     4  2  2.50      -401.8768  10.0000                                                             
     4  3  3.50      -132.9059  14.0000                                                             
     5  0  0.50      -144.0950   2.0000                                                             
     5  1  1.50       -85.7879   6.0000                                                             
     5  2  2.50       -21.1769  10.0000                                                             
     6  0  0.50       -12.0372   2.0000                                                             
     6  1  1.50        -3.4971   2.0000                                                             
     6  2  2.50        -1.3606   0.0000                                                             
     5  3  2.50        -2.7212   0.0000                                                             
   Description                                                                                      
     l       E           TYP  RCUT    TYP  RCUT                                                     
     0    -12.0371566     23  3.100                                                                 
     0    -13.3977392     23  3.100                                                                 
     1     -3.4971341     23  3.100                                                                 
     1     -5.4423304     23  3.100                                                                 
     2     -1.3605826     23  3.100                                                                 
     3     -1.3605826     23  3.100                                                                 
  local pseudopotential read in
  partial core-charges read in
  partial kinetic energy density read in
  atomic valenz-charges read in
  non local Contribution for L=           0  read in
    real space projection operators read in
  non local Contribution for L=           0  read in
    real space projection operators read in
  non local Contribution for L=           1  read in
    real space projection operators read in
  non local Contribution for L=           1  read in
    real space projection operators read in
  non local Contribution for L=           2  read in
    real space projection operators read in
    PAW grid and wavefunctions read in

   number of l-projection  operators is LMAX  =           5
   number of lm-projection operators is LMMAX =          13

 POTCAR:    PAW_PBE Cs_sv 25Jan2019               
   SHA256 =  0e16bce67778f8d3e6a1e8d49098acae95c0f8d441dd09aee70633bcf454619d Cs_sv/POTCAR          
   COPYR  = (c) Copyright 25Jan2019 Georg Kresse                                                    
   COPYR  = This file is part of the software VASP. Any use, copying, and all other rights are regul
   COPYR  = If you do not have a valid VASP license, you may not use, copy or distribute this file. 
   VRHFIN =Cs: 5s5p6s                                                                               
   LEXCH  = PE                                                                                      
   EATOM  =   555.6835 eV,   40.8416 Ry                                                             
                                                                                                    
   TITEL  = PAW_PBE Cs_sv 25Jan2019                                                                 
   LULTRA =        F    use ultrasoft PP ?                                                          
   IUNSCR =        1    unscreen: 0-lin 1-nonlin 2-no                                               
   RPACOR =    1.800    partial core radius                                                         
   POMASS =  132.900; ZVAL   =    9.000    mass and valenz                                          
   RCORE  =    2.500    outmost cutoff radius                                                       
   RWIGS  =    2.500; RWIGS  =    1.323    wigner-seitz radius (au A)                               
   ENMAX  =  220.318; ENMIN  =  165.238 eV                                                          
   RCLOC  =    2.207    cutoff for local pot                                                        
   LCOR   =        T    correct aug charges                                                         
   LPAW   =        T    paw PP                                                                      
   EAUG   =  407.933                                                                                
   DEXC   =   -0.000                                                                                
   RMAX   =    2.554    core radius for proj-oper                                                   
   RAUG   =    1.300    factor for augmentation sphere                                              
   RDEP   =    2.590    radius for radial grids                                                     
   RDEPT  =    2.067    core radius for aug-charge                                                  
                                                                                                    
   Atomic configuration                                                                             
   13 entries                                                                                       
     n  l   j            E        occ.                                                              
     1  0  0.50    -35790.1377   2.0000                                                             
     2  0  0.50     -5613.6201   2.0000                                                             
     2  1  1.50     -5035.0101   6.0000                                                             
     3  0  0.50     -1167.0767   2.0000                                                             
     3  1  1.50      -980.9754   6.0000                                                             
     3  2  2.50      -708.0703  10.0000                                                             
     4  0  0.50      -220.2386   2.0000                                                             
     4  1  1.50      -160.7596   6.0000                                                             
     4  2  2.50       -74.2354  10.0000                                                             
     5  0  0.50       -26.7287   2.0000                                                             
     6  0  0.50        -2.0862   1.0000                                                             
     5  1  1.50       -13.5159   6.0000                                                             
     5  2  2.50        -0.4136   0.0000                                                             
   Description                                                                                      
     l       E           TYP  RCUT    TYP  RCUT                                                     
     0    -26.7287425     23  1.900                                                                 
     0     -2.0862306     23  1.900                                                                 
     1    -13.5158719     23  2.300                                                                 
     1     -2.7211652     23  2.300                                                                 
     2     -0.4136171     23  2.500                                                                 
  local pseudopotential read in
  partial core-charges read in
  partial kinetic energy density read in
  kinetic energy density of atom read in
  atomic valenz-charges read in
  non local Contribution for L=           0  read in
    real space projection operators read in
  non local Contribution for L=           0  read in
    real space projection operators read in
  non local Contribution for L=           1  read in
    real space projection operators read in
  non local Contribution for L=           1  read in
    real space projection operators read in
  non local Contribution for L=           2  read in
    real space projection operators read in
    PAW grid and wavefunctions read in

   number of l-projection  operators is LMAX  =           5
   number of lm-projection operators is LMMAX =          13

 POTCAR:    PAW_PBE I 08Apr2002                   
   SHA256 =  e40f3f59b681c1fc3e3091736183c4589116986673d2b852a5012aec72758799 I/POTCAR              
   COPYR  = (c) Copyright 08Apr2002 Georg Kresse                                                    
   COPYR  = This file is part of the software VASP. Any use, copying, and all other rights are regul
   COPYR  = If you do not have a valid VASP license, you may not use, copy or distribute this file. 
   VRHFIN =I : s2p5                                                                                 
   LEXCH  = PE                                                                                      
   EATOM  =   315.8678 eV,   23.2156 Ry                                                             
                                                                                                    
   TITEL  = PAW_PBE I 08Apr2002                                                                     
   LULTRA =        F    use ultrasoft PP ?                                                          
   IUNSCR =        1    unscreen: 0-lin 1-nonlin 2-no                                               
   RPACOR =    2.200    partial core radius                                                         
   POMASS =  126.904; ZVAL   =    7.000    mass and valenz                                          
   RCORE  =    2.300    outmost cutoff radius                                                       
   RWIGS  =    2.810; RWIGS  =    1.487    wigner-seitz radius (au A)                               
   ENMAX  =  175.647; ENMIN  =  131.735 eV                                                          
   ICORE  =        3    local potential                                                             
   LCOR   =        T    correct aug charges                                                         
   LPAW   =        T    paw PP                                                                      
   EAUG   =  370.139                                                                                
   DEXC   =    0.000                                                                                
   RMAX   =    2.359    core radius for proj-oper                                                   
   RAUG   =    1.300    factor for augmentation sphere                                              
   RDEP   =    2.392    radius for radial grids                                                     
   RDEPT  =    2.170    core radius for aug-charge                                                  
                                                                                                    
   Atomic configuration                                                                             
   13 entries                                                                                       
     n  l   j            E        occ.                                                              
     1  0  0.50    -32976.3739   2.0000                                                             
     2  0  0.50     -5094.5933   2.0000                                                             
     2  1  1.50     -4572.0131   6.0000                                                             
     3  0  0.50     -1028.2813   2.0000                                                             
     3  1  1.50      -859.0250   6.0000                                                             
     3  2  2.50      -605.7620  10.0000                                                             
     4  0  0.50      -180.5540   2.0000                                                             
     4  1  1.50      -127.5306   6.0000                                                             
     4  2  2.50       -50.2720  10.0000                                                             
     5  0  0.50       -17.4058   2.0000                                                             
     5  1  0.50        -7.0851   5.0000                                                             
     5  2  1.50        -7.0750   0.0000                                                             
     4  3  2.50        -7.0750   0.0000                                                             
   Description                                                                                      
     l       E           TYP  RCUT    TYP  RCUT                                                     
     0    -17.4058016     23  2.300                                                                 
     0    -18.7663842     23  2.300                                                                 
     1     -7.0850686     23  2.300                                                                 
     1     -4.2150896     23  2.300                                                                 
     2     -7.0750295     23  2.300                                                                 
     3     -1.3605826     23  2.300                                                                 
  local pseudopotential read in
  partial core-charges read in
  partial kinetic energy density read in
  atomic valenz-charges read in
  non local Contribution for L=           0  read in
    real space projection operators read in
  non local Contribution for L=           0  read in
    real space projection operators read in
  non local Contribution for L=           1  read in
    real space projection operators read in
  non local Contribution for L=           1  read in
    real space projection operators read in
  non local Contribution for L=           2  read in
    real space projection operators read in
    PAW grid and wavefunctions read in

   number of l-projection  operators is LMAX  =           5
   number of lm-projection operators is LMMAX =          13

 Optimization of the real space projectors (new method)

 maximal supplied QI-value         = 12.09
 optimisation between [QCUT,QGAM] = [ 10.16, 20.44] = [ 28.90,116.99] Ry 
 Optimized for a Real-space Cutoff    1.65 Angstroem

   l    n(q)    QCUT    max X(q) W(low)/X(q) W(high)/X(q)  e(spline) 
   0     10    10.159   135.111    0.31E-03    0.14E-03    0.72E-06
   0     10    10.159   146.850    0.29E-03    0.13E-03    0.68E-06
   1     10    10.159   148.016    0.34E-03    0.63E-03    0.31E-06
   1     10    10.159   122.989    0.35E-03    0.65E-03    0.32E-06
   2      9    10.159     8.916    0.31E-03    0.12E-03    0.31E-06
 Optimization of the real space projectors (new method)

 maximal supplied QI-value         = 15.12
 optimisation between [QCUT,QGAM] = [ 10.13, 20.41] = [ 28.73,116.64] Ry 
 Optimized for a Real-space Cutoff    1.46 Angstroem

   l    n(q)    QCUT    max X(q) W(low)/X(q) W(high)/X(q)  e(spline) 
   0      9    10.129    25.322    0.60E-04    0.15E-03    0.28E-06
   0      9    10.129    99.187    0.59E-04    0.14E-03    0.27E-06
   1      8    10.129    14.440    0.14E-03    0.48E-03    0.20E-06
   1      8    10.129    11.656    0.13E-03    0.44E-03    0.19E-06
   2      8    10.129     3.829    0.47E-03    0.80E-03    0.26E-06
 Optimization of the real space projectors (new method)

 maximal supplied QI-value         = 16.25
 optimisation between [QCUT,QGAM] = [ 10.24, 20.48] = [ 29.35,117.42] Ry 
 Optimized for a Real-space Cutoff    1.42 Angstroem

   l    n(q)    QCUT    max X(q) W(low)/X(q) W(high)/X(q)  e(spline) 
   0      9    10.239   194.483    0.83E-04    0.12E-03    0.80E-07
   0      9    10.239   190.334    0.80E-04    0.11E-03    0.78E-07
   1      8    10.239   116.687    0.25E-03    0.31E-03    0.74E-07
   1      8    10.239    88.696    0.25E-03    0.30E-03    0.73E-07
   2      8    10.239     4.877    0.44E-04    0.81E-04    0.46E-07
  PAW_PBE Pb 08Apr2002                  :
 energy of atom  1       EATOM=  -96.9868
 kinetic energy error for atom=    0.0001 (will be added to EATOM!!)
  PAW_PBE Cs_sv 25Jan2019               :
 energy of atom  2       EATOM= -555.6835
 kinetic energy error for atom=    0.0044 (will be added to EATOM!!)
  PAW_PBE I 08Apr2002                   :
 energy of atom  3       EATOM= -315.8678
 kinetic energy error for atom=    0.0013 (will be added to EATOM!!)


 POSCAR: Pristine Cubic CsPbI3 unit cell
  positions in direct lattice
  velocities in cartesian coordinates
 IVDW         = 12
 VDW_S6       =    1.0000
 VDW_S8       =    0.7875
 VDW_A1       =    0.4289
 VDW_A2       =    4.4407
 VDW_RADIUS   =   50.2022 A
 VDW_CNRADIUS =   21.1671 A


 exchange-correlation table for PE
   RHO(1)=    0.500       N(1)  =     2000
   RHO(2)=  100.500       N(2)  =     4000

 VTST: version 4.2, (11/09/24)

 CHAIN: initializing optimizer
 
 OPT: Using VASP Conjugate-Gradient optimizer
 CHAIN: Read ICHAIN            0

 POSCAR: Pristine Cubic CsPbI3 unit cell
  positions in direct lattice
  velocities in cartesian coordinates



--------------------------------------------------------------------------------------------------------


 ion  position               nearest neighbor table
   1  0.012  0.998  0.011-  25 3.17  18 3.18  33 3.22  17 3.25  29 3.26  35 3.26
   2  0.003  0.012  0.513-  34 3.19  30 3.20  17 3.20  26 3.20  18 3.24  36 3.24
   3  0.007  0.498  0.011-  19 3.16  31 3.19  35 3.23  20 3.25  33 3.27  27 3.28
   4  0.964  0.515  0.491-  32 3.11  41 3.21  36 3.21  34 3.27  19 3.28  20 3.53  28 3.76
   5  0.500  0.003  0.012-  25 3.17  22 3.18  37 3.23  21 3.24  29 3.25  39 3.26
   6  0.506  0.015  0.511-  26 3.18  21 3.20  30 3.21  38 3.22  22 3.24  40 3.24
   7  0.507  0.504  0.000-  23 3.19  27 3.20  31 3.23  39 3.24  37 3.26  24 3.27
   8  0.510  0.514  0.489-  28 3.12  40 3.23  23 3.24  38 3.24  24 3.29  32 3.43
   9  0.256  0.220  0.228-
  10  0.257  0.280  0.725-
  11  0.252  0.701  0.246-
  12  0.260  0.756  0.700-
  13  0.758  0.262  0.255-
  14  0.758  0.234  0.772-
  15  0.756  0.826  0.274-
  16  0.748  0.789  0.813-
  17  0.984  0.053  0.262-   2 3.20   1 3.25
  18  0.025  0.953  0.763-   1 3.18   2 3.24
  19  0.052  0.449  0.254-   3 3.16   4 3.28
  20  0.046  0.536  0.758-   3 3.25  41 3.34   4 3.53
  21  0.529  0.058  0.262-   6 3.20   5 3.24
  22  0.485  0.962  0.763-   5 3.18   6 3.24
  23  0.461  0.452  0.245-   7 3.19   8 3.24
  24  0.510  0.562  0.747-   7 3.27   8 3.29
  25  0.256  0.951  0.053-   1 3.17   5 3.17
  26  0.255  0.051  0.502-   6 3.18   2 3.20
  27  0.259  0.551  0.968-   7 3.20   3 3.28
  28  0.263  0.500  0.510-   8 3.12   4 3.76
  29  0.756  0.037  0.007-   5 3.25   1 3.26
  30  0.755  0.977  0.551-   2 3.20   6 3.21
  31  0.758  0.449  0.006-   3 3.19   7 3.23
  32  0.751  0.539  0.366-   4 3.11   8 3.43
  33  0.052  0.247  0.963-   1 3.22   3 3.27
  34  0.972  0.262  0.547-   2 3.19   4 3.27
  35  0.964  0.747  0.056-   3 3.23   1 3.26
  36  0.027  0.761  0.460-   4 3.21   2 3.24
  37  0.464  0.252  0.958-   5 3.23   7 3.26
  38  0.542  0.266  0.550-   6 3.22   8 3.24
  39  0.545  0.752  0.057-   7 3.24   5 3.26
  40  0.479  0.766  0.450-   8 3.23   6 3.24
  41  0.793  0.527  0.679-   4 3.21  20 3.34


IMPORTANT INFORMATION: All symmetrisations will be switched off!
NOSYMM: (Re-)initialisation of all symmetry stuff for point group C_1.


----------------------------------------------------------------------------------------

                                     Primitive cell                                     

  volume of cell :    1988.1763

  direct lattice vectors                    reciprocal lattice vectors
    12.574333191  0.000000000  0.000000000     0.079527080  0.000000000  0.000000000
     0.000000000 12.574333191  0.000000000     0.000000000  0.079527080  0.000000000
     0.000000000  0.000000000 12.574333191     0.000000000  0.000000000  0.079527080

  length of vectors
    12.574333191 12.574333191 12.574333191     0.079527080  0.079527080  0.079527080

  position of ions in fractional coordinates (direct lattice)
     0.012298020  0.998310597  0.010897268
     0.003368827  0.012364254  0.512897451
     0.006886200  0.497980492  0.011312737
     0.964129258  0.515274679  0.490550390
     0.499808361  0.003352507  0.011500797
     0.505576518  0.015480105  0.511398267
     0.507133784  0.504078880  0.000428885
     0.509721804  0.514207083  0.489458207
     0.256308017  0.220298154  0.228086231
     0.256514922  0.279774956  0.725324833
     0.251863240  0.700931824  0.245604340
     0.260471572  0.755624226  0.699994620
     0.758324608  0.261522764  0.254818774
     0.757716631  0.233902333  0.772012973
     0.756349095  0.826255275  0.273884933
     0.748280760  0.788819398  0.813227639
     0.984421877  0.052757387  0.262386979
     0.024573966  0.952908390  0.762817200
     0.051807175  0.448980136  0.253587855
     0.045714182  0.536091162  0.758323489
     0.528509099  0.058346066  0.261901727
     0.484600485  0.962134156  0.762584053
     0.461116750  0.451528917  0.244701296
     0.509802923  0.562437733  0.746794526
     0.256261884  0.951426064  0.053100367
     0.255101799  0.050657062  0.501766028
     0.258763464  0.550557966  0.967802896
     0.262506947  0.499939388  0.509721149
     0.756137958  0.037254078  0.006648158
     0.754583320  0.976512288  0.550619208
     0.757842613  0.448790218  0.005530856
     0.751350763  0.538817155  0.366023390
     0.052238036  0.246556282  0.963330203
     0.972472282  0.261739374  0.546944121
     0.964341607  0.747188701  0.055576069
     0.027465228  0.760933130  0.460202025
     0.463586134  0.252239053  0.958171660
     0.541796376  0.265607265  0.550295007
     0.545141797  0.752395316  0.057365929
     0.479438242  0.766455311  0.450123615
     0.792673473  0.526569876  0.679283849

  ion indices of the primitive-cell ions
   primitive index   ion index
                 1           1
                 2           2
                 3           3
                 4           4
                 5           5
                 6           6
                 7           7
                 8           8
                 9           9
                10          10
                11          11
                12          12
                13          13
                14          14
                15          15
                16          16
                17          17
                18          18
                19          19
                20          20
                21          21
                22          22
                23          23
                24          24
                25          25
                26          26
                27          27
                28          28
                29          29
                30          30
                31          31
                32          32
                33          33
                34          34
                35          35
                36          36
                37          37
                38          38
                39          39
                40          40
                41          41

----------------------------------------------------------------------------------------



 KPOINTS: Cubic CsPbI3 + I_i(0) defect in relaxed 

Automatic generation of k-mesh.
 Grid dimensions read from file:
 generate k-points for:    3    3    3

 Generating k-lattice:

  Cartesian coordinates                     Fractional coordinates (reciprocal lattice)
     0.026509027  0.000000000  0.000000000     0.333333333  0.000000000  0.000000000
     0.000000000  0.026509027  0.000000000     0.000000000  0.333333333  0.000000000
     0.000000000  0.000000000  0.026509027     0.000000000  0.000000000  0.333333333

  Length of vectors
     0.026509027  0.026509027  0.026509027

  Shift w.r.t. Gamma in fractional coordinates (k-lattice)
     0.000000000  0.000000000  0.000000000

 
 Subroutine IBZKPT returns following result:
 ===========================================
 
 Found     14 irreducible k-points:
 
 Following reciprocal coordinates:
            Coordinates               Weight
  0.000000  0.000000  0.000000      1.000000
  0.333333  0.000000  0.000000      2.000000
  0.000000  0.333333  0.000000      2.000000
  0.000000  0.000000  0.333333      2.000000
  0.333333  0.333333  0.000000      2.000000
  0.000000  0.333333  0.333333      2.000000
  0.333333  0.000000  0.333333      2.000000
 -0.333333  0.333333  0.000000      2.000000
 -0.333333  0.000000  0.333333      2.000000
  0.000000 -0.333333  0.333333      2.000000
  0.333333  0.333333  0.333333      2.000000
 -0.333333  0.333333  0.333333      2.000000
 -0.333333 -0.333333  0.333333      2.000000
  0.333333 -0.333333  0.333333      2.000000
 
 Following cartesian coordinates:
            Coordinates               Weight
  0.000000  0.000000  0.000000      1.000000
  0.026509  0.000000  0.000000      2.000000
  0.000000  0.026509  0.000000      2.000000
  0.000000  0.000000  0.026509      2.000000
  0.026509  0.026509  0.000000      2.000000
  0.000000  0.026509  0.026509      2.000000
  0.026509  0.000000  0.026509      2.000000
 -0.026509  0.026509  0.000000      2.000000
 -0.026509  0.000000  0.026509      2.000000
  0.000000 -0.026509  0.026509      2.000000
  0.026509  0.026509  0.026509      2.000000
 -0.026509  0.026509  0.026509      2.000000
 -0.026509 -0.026509  0.026509      2.000000
  0.026509 -0.026509  0.026509      2.000000
 


--------------------------------------------------------------------------------------------------------




 Dimension of arrays:
   k-points           NKPTS =     14   k-points in BZ     NKDIM =     14   number of bands    NBANDS=    192
   number of dos      NEDOS =    301   number of ions     NIONS =     41
   non local maximal  LDIM  =      5   non local SUM 2l+1 LMDIM =     13
   total plane-waves  NPLWV = 262144
   max r-space proj   IRMAX =   2523   max aug-charges    IRDMAX=  15287
   dimension x,y,z NGX =    64 NGY =   64 NGZ =   64
   dimension x,y,z NGXF=   128 NGYF=  128 NGZF=  128
   support grid    NGXF=   128 NGYF=  128 NGZF=  128
   ions per type =               8   8  25
   NGX,Y,Z   is equivalent  to a cutoff of   8.46,  8.46,  8.46 a.u.
   NGXF,Y,Z  is equivalent  to a cutoff of  16.92, 16.92, 16.92 a.u.

 SYSTEM =  Cubic CsPbI3 + I_i(0) defect in relaxed 
 POSCAR =  Pristine Cubic CsPbI3 unit cell         

 Startparameter for this run:
   NWRITE =      2    write-flag & timer
   PREC   = normal    normal or accurate (medium, high low for compatibility)
   ISTART =      1    job   : 0-new  1-cont  2-samecut
   ICHARG =      1    charge: 1-file 2-atom 10-const
   ISPIN  =      1    spin polarized calculation?
   LNONCOLLINEAR =      F non collinear calculations
   LSORBIT =      F    spin-orbit coupling
   INIWAV =      1    electr: 0-lowe 1-rand  2-diag
   LASPH  =      F    aspherical Exc in radial PAW
 Electronic Relaxation 1
   ENCUT  =  400.0 eV  29.40 Ry    5.42 a.u.  20.51 20.51 20.51*2*pi/ulx,y,z
   ENINI  =  400.0     initial cutoff
   ENAUG  =  407.9 eV  augmentation charge cutoff
   NELM   =     60;   NELMIN=  2; NELMDL=  0     # of ELM steps 
   EDIFF  = 0.1E-05   stopping-criterion for ELM
   LREAL  =      T    real-space projection
   NLSPLINE    = F    spline interpolate recip. space projectors
   LCOMPAT=      F    compatible to vasp.4.4
   GGA_COMPAT  = T    GGA compatible to vasp.4.4-vasp.4.6
   LMAXPAW     = -100 max onsite density
   LMAXMIX     =    2 max onsite mixed and CHGCAR
   VOSKOWN=      0    Vosko Wilk Nusair interpolation
   ROPT   =   -0.00050  -0.00050  -0.00050
 Ionic relaxation
   EDIFFG = -.5E-02   stopping-criterion for IOM
   NSW    =    300    number of steps for IOM
   NBLOCK =      1;   KBLOCK =    300    inner block; outer block 
   IBRION =      2    ionic relax: 0-MD 1-quasi-New 2-CG
   NFREE  =      1    steps in history (QN), initial steepest desc. (CG)
   ISIF   =      2    stress and relaxation
   IWAVPR =     11    prediction:  0-non 1-charg 2-wave 3-comb
   ISYM   =      0    0-nonsym 1-usesym 2-fastsym
   LCORR  =      T    Harris-Foulkes like correction to forces

   POTIM  = 0.5000    time-step for ionic-motion
   TEIN   =    0.0    initial temperature
   TEBEG  =    0.0;   TEEND  =   0.0 temperature during run
   SMASS  =  -3.00    Nose mass-parameter (am)
   estimated Nose-frequenzy (Omega)   =  0.10E-29 period in steps = 0.13E+47 mass=  -0.361E-26a.u.
   SCALEE = 1.0000    scale energy and forces
   NPACO  =    256;   APACO  = 10.0  distance and # of slots for P.C.
   PSTRESS=    0.0 pullay stress

  Mass of Ions in am
   POMASS = 207.20132.90126.90
  Ionic Valenz
   ZVAL   =   4.00  9.00  7.00
  Atomic Wigner-Seitz radii
   RWIGS  =  -1.00 -1.00 -1.00
  virtual crystal weights 
   VCA    =   1.00  1.00  1.00
   NELECT =     279.0000    total number of electrons
   NUPDOWN=      -1.0000    fix difference up-down

 DOS related values:
   EMIN   =  10.00;   EMAX   =-10.00  energy-range for DOS
   EFERMI =   0.00;   METHOD = LEGACY      
   ISMEAR =     0;   SIGMA  =   0.20  broadening in eV -4-tet -1-fermi 0-gaus

 Electronic relaxation 2 (details)
   IALGO  =     38    algorithm
   LDIAG  =      T    sub-space diagonalisation (order eigenvalues)
   LSUBROT=      F    optimize rotation matrix (better conditioning)
   TURBO    =      0    0=normal 1=particle mesh
   IRESTART =      0    0=no restart 2=restart with 2 vectors
   NREBOOT  =      0    no. of reboots
   NMIN     =      0    reboot dimension
   EREF     =   0.00    reference energy to select bands
   IMIX   =      4    mixing-type and parameters
     AMIX     =   0.40;   BMIX     =  1.00
     AMIX_MAG =   1.60;   BMIX_MAG =  1.00
     AMIN     =   0.10
     WC   =   100.;   INIMIX=   1;  MIXPRE=   1;  MAXMIX= -45

 Intra band minimization:
   WEIMIN = 0.0010     energy-eigenvalue tresh-hold
   EBREAK =  0.13E-08  absolut break condition
   DEPER  =   0.30     relativ break condition  

   TIME   =   0.40     timestep for ELM

  volume/ion in A,a.u.               =      48.49       327.24
  Fermi-wavevector in a.u.,A,eV,Ry     =   0.850729  1.607645  9.847080  0.723740
  Thomas-Fermi vector in A             =   1.966752

 Write flags
   LWAVE        =      T    write WAVECAR
   LDOWNSAMPLE  =      F    k-point downsampling of WAVECAR
   LCHARG       =      T    write CHGCAR
   LVTOT        =      F    write LOCPOT, total local potential
   LVHAR        =      F    write LOCPOT, Hartree potential only
   WRT_POTENTIAL= false  ! write potential to hdf5 file
   LELF         =      F    write electronic localiz. function (ELF)
   LORBIT       =      0    0 simple, 1 ext, 2 COOP (PROOUT), +10 PAW based schemes


 Dipole corrections
   LMONO      =      F    monopole corrections only (constant potential shift)
   LDIPOL     =      F    correct potential (dipole corrections)
   IDIPOL     =      0    1-x, 2-y, 3-z, 4-all directions 
   EPSILON    =  1.0000000 bulk dielectric constant
   LVACPOTAV  =      F  vacuum potentials using an averaging scheme for the charge density
   VACPOTFLAT =  0.1000000 required flatness to determine vacuum potential
 Exchange correlation treatment:
   GGA     = PE    functional components
   XC_C    = 1    coefficients multiplying the functional components
   LIBXC   =     F    Libxc                    
   VOSKOWN =     0    Vosko Wilk Nusair interpolation
   LHFCALC =     F    Hartree Fock is set to
   LHFONE  =     F    Hartree Fock one center treatment
   AEXX    =    0.0000 exact exchange contribution

 Parameters of functionals:
   PE:
     No parameter

 Van der Waals corrections
   IVDW    =    12    specifies the selected vdW correction

 Linear response parameters
   LEPSILON=     F    determine dielectric tensor
   LRPA    =     F    only Hartree local field effects (RPA)
   LNABLA  =     F    use nabla operator in PAW spheres
   LVEL    =     F    velocity operator in full k-point grid
   CSHIFT  =0.1000    complex shift for real part using Kramers Kronig
   OMEGAMAX=  -1.0    maximum frequency
   DEG_THRESHOLD= 0.2000000E-02 threshold for treating states as degnerate
   RTIME   =   -0.100 relaxation time in fs
  (WPLASMAI=    0.000 imaginary part of plasma frequency in eV, 0.658/RTIME)
   DFIELD  = 0.0000000 0.0000000 0.0000000 field for delta impulse in time

  Optional k-point grid parameters
   LKPOINTS_OPT  =     F    use optional k-point grid
   KPOINTS_OPT_MODE=     1    mode for optional k-point grid

 Orbital magnetization related:
   ORBITALMAG=     F  switch on orbital magnetization
   LCHIMAG   =     F  perturbation theory with respect to B field
   DQ        =  0.001000  dq finite difference perturbation B field
   LLRAUG    =     F  two centre corrections for induced B field
   LBONE     =     F  B-component reconstruction in AE one-centre
   LVGVCALC  =     T  calculate vGv susceptibility
   LVGVAPPL  =     F  apply vGv susceptibility instead of pGv for G=0

 Random number generation:
   RANDOM_GENERATOR = DEFAULT
   PCG_SEED         = not used


--------------------------------------------------------------------------------------------------------


 conjugate gradient relaxation of ions
 charge density and potential will be updated during run
 non-spin polarized calculation
 Variant of blocked Davidson
 Davidson routine will perform the subspace rotation
 perform sub-space diagonalisation
    after iterative eigenvector-optimisation
 modified Broyden-mixing scheme, WC =      100.0
 initial mixing is a Kerker type mixing with AMIX =  0.4000 and BMIX =      1.0000
 Hartree-type preconditioning will be used
 using additional bands           52
 real space projection scheme for non local part
 use partial core corrections
 calculate Harris-corrections to forces   (improved forces if not selfconsistent)
 use gradient corrections 
 use of overlap-Matrix (Vanderbilt PP)
 Gauss-broadening in eV      SIGMA  =   0.20


--------------------------------------------------------------------------------------------------------


  energy-cutoff  :      400.00
  volume of cell :     1988.18
      direct lattice vectors                 reciprocal lattice vectors
    12.574333191  0.000000000  0.000000000     0.079527080  0.000000000  0.000000000
     0.000000000 12.574333191  0.000000000     0.000000000  0.079527080  0.000000000
     0.000000000  0.000000000 12.574333191     0.000000000  0.000000000  0.079527080

  length of vectors
    12.574333191 12.574333191 12.574333191     0.079527080  0.079527080  0.079527080



 old parameters found on file WAVECAR:
  energy-cutoff  :      400.00
  volume of cell :     1988.18
      direct lattice vectors                 reciprocal lattice vectors
    12.574333191  0.000000000  0.000000000     0.079527080  0.000000000  0.000000000
     0.000000000 12.574333191  0.000000000     0.000000000  0.079527080  0.000000000
     0.000000000  0.000000000 12.574333191     0.000000000  0.000000000  0.079527080

  length of vectors


 k-points in units of 2pi/SCALE and weight: Cubic CsPbI3 + I_i(0) defect in relaxed 
   0.00000000  0.00000000  0.00000000       0.037
   0.02650903  0.00000000  0.00000000       0.074
   0.00000000  0.02650903  0.00000000       0.074
   0.00000000  0.00000000  0.02650903       0.074
   0.02650903  0.02650903  0.00000000       0.074
   0.00000000  0.02650903  0.02650903       0.074
   0.02650903  0.00000000  0.02650903       0.074
  -0.02650903  0.02650903  0.00000000       0.074
  -0.02650903  0.00000000  0.02650903       0.074
   0.00000000 -0.02650903  0.02650903       0.074
   0.02650903  0.02650903  0.02650903       0.074
  -0.02650903  0.02650903  0.02650903       0.074
  -0.02650903 -0.02650903  0.02650903       0.074
   0.02650903 -0.02650903  0.02650903       0.074

 k-points in reciprocal lattice and weights: Cubic CsPbI3 + I_i(0) defect in relaxed 
   0.00000000  0.00000000  0.00000000       0.037
   0.33333333  0.00000000  0.00000000       0.074
   0.00000000  0.33333333  0.00000000       0.074
   0.00000000  0.00000000  0.33333333       0.074
   0.33333333  0.33333333  0.00000000       0.074
   0.00000000  0.33333333  0.33333333       0.074
   0.33333333  0.00000000  0.33333333       0.074
  -0.33333333  0.33333333  0.00000000       0.074
  -0.33333333  0.00000000  0.33333333       0.074
   0.00000000 -0.33333333  0.33333333       0.074
   0.33333333  0.33333333  0.33333333       0.074
  -0.33333333  0.33333333  0.33333333       0.074
  -0.33333333 -0.33333333  0.33333333       0.074
   0.33333333 -0.33333333  0.33333333       0.074

 position of ions in fractional coordinates (direct lattice) 
   0.01229802  0.99831060  0.01089727
   0.00336883  0.01236425  0.51289745
   0.00688620  0.49798049  0.01131274
   0.96412926  0.51527468  0.49055039
   0.49980836  0.00335251  0.01150080
   0.50557652  0.01548010  0.51139827
   0.50713378  0.50407888  0.00042888
   0.50972180  0.51420708  0.48945821
   0.25630802  0.22029815  0.22808623
   0.25651492  0.27977496  0.72532483
   0.25186324  0.70093182  0.24560434
   0.26047157  0.75562423  0.69999462
   0.75832461  0.26152276  0.25481877
   0.75771663  0.23390233  0.77201297
   0.75634909  0.82625527  0.27388493
   0.74828076  0.78881940  0.81322764
   0.98442188  0.05275739  0.26238698
   0.02457397  0.95290839  0.76281720
   0.05180718  0.44898014  0.25358785
   0.04571418  0.53609116  0.75832349
   0.52850910  0.05834607  0.26190173
   0.48460049  0.96213416  0.76258405
   0.46111675  0.45152892  0.24470130
   0.50980292  0.56243773  0.74679453
   0.25626188  0.95142606  0.05310037
   0.25510180  0.05065706  0.50176603
   0.25876346  0.55055797  0.96780290
   0.26250695  0.49993939  0.50972115
   0.75613796  0.03725408  0.00664816
   0.75458332  0.97651229  0.55061921
   0.75784261  0.44879022  0.00553086
   0.75135076  0.53881715  0.36602339
   0.05223804  0.24655628  0.96333020
   0.97247228  0.26173937  0.54694412
   0.96434161  0.74718870  0.05557607
   0.02746523  0.76093313  0.46020202
   0.46358613  0.25223905  0.95817166
   0.54179638  0.26560727  0.55029501
   0.54514180  0.75239532  0.05736593
   0.47943824  0.76645531  0.45012361
   0.79267347  0.52656988  0.67928385

 position of ions in cartesian coordinates  (Angst):
   0.15463941 12.55309008  0.13702588
   0.04236076  0.15547225  6.44934344
   0.08658937  6.26177263  0.14225012
  12.12328253  6.47923550  6.16834405
   6.28475686  0.04215554  0.14461486
   6.35728760  0.19465199  6.43049221
   6.37686917  6.33845579  0.00539294
   6.40941179  6.46581119  6.15461057
   3.22290240  2.77010239  2.86803227
   3.22550410  3.51798352  9.12047613
   3.16701230  8.81375030  3.08831080
   3.27525634  9.50147078  8.80196558
   9.53542629  3.28847437  3.20417617
   9.52778139  2.94116587  9.70754835
   9.51058553 10.38960912  3.44392040
   9.40913160  9.91887793 10.22579529
  12.37844868  0.66338896  3.29934130
   0.30900124 11.98218760  9.59191763
   0.65144068  5.64562583  3.18869818
   0.57482535  6.74098890  9.53541222
   6.64564951  0.73366288  3.29323958
   6.09352797 12.09819545  9.58898597
   5.79823565  5.67767505  3.07695563
   6.41043182  7.07227945  9.39044319
   3.22232231 11.96354834  0.66770171
   3.20773502  0.63697878  6.30937321
   3.25377802  6.92289931 12.16947608
   3.30084981  6.28640444  6.40940356
   9.50793062  0.46844519  0.08359616
   9.48838208 12.27899087  6.92366939
   9.52936552  5.64323773  0.06954683
   9.44773484  6.77526643  4.60250006
   0.65685847  3.10028084 12.11323494
  12.22819049  3.29119809  6.87745761
  12.12595268  9.39539968  0.69883201
   0.34535693  9.56822671  5.78673360
   5.82928652  3.17173790 12.04836971
   6.81272816  3.33983425  6.91959277
   6.85479459  9.46086939  0.72133830
   6.02861620  9.63766445  5.66000431
   9.96734036  6.62126506  8.54154145



--------------------------------------------------------------------------------------------------------


 k-point     1 :   0.0000 0.0000 0.0000  plane waves:   36137
 k-point     2 :   0.3333 0.0000 0.0000  plane waves:   36125
 k-point     3 :   0.0000 0.3333 0.0000  plane waves:   36125
 k-point     4 :   0.0000 0.0000 0.3333  plane waves:   36125
 k-point     5 :   0.3333 0.3333 0.0000  plane waves:   36135
 k-point     6 :   0.0000 0.3333 0.3333  plane waves:   36135
 k-point     7 :   0.3333 0.0000 0.3333  plane waves:   36135
 k-point     8 :  -0.3333 0.3333 0.0000  plane waves:   36135
 k-point     9 :  -0.3333 0.0000 0.3333  plane waves:   36135
 k-point    10 :   0.0000-0.3333 0.3333  plane waves:   36135
 k-point    11 :   0.3333 0.3333 0.3333  plane waves:   36060
 k-point    12 :  -0.3333 0.3333 0.3333  plane waves:   36060
 k-point    13 :  -0.3333-0.3333 0.3333  plane waves:   36060
 k-point    14 :   0.3333-0.3333 0.3333  plane waves:   36060

 maximum and minimum number of plane-waves per node :     18119    18004

 maximum number of plane-waves:     36137
 maximum index in each direction: 
   IXMAX=   20   IYMAX=   20   IZMAX=   20
   IXMIN=  -20   IYMIN=  -20   IZMIN=  -20


 real space projection operators:
  total allocation   :       7229.02 KBytes
  max/ min on nodes  :       3615.22       3613.80


 parallel 3D FFT for wavefunctions:
    minimum data exchange during FFTs selected (reduces bandwidth)
 parallel 3D FFT for charge:
    minimum data exchange during FFTs selected (reduces bandwidth)


 total amount of memory used by VASP MPI-rank0    73666. kBytes
=======================================================================

   base      :      30000. kBytes
   nonlr-proj:       6169. kBytes
   fftplans  :       5158. kBytes
   grid      :       7397. kBytes
   one-center:        170. kBytes
   wavefun   :      24772. kBytes

     INWAV:  cpu time      1.8801: real time      1.8837
 Broyden mixing: mesh for mixing (old mesh)
   NGX = 41   NGY = 41   NGZ = 41
  (NGX  =128   NGY  =128   NGZ  =128)
  gives a total of  68921 points

 initial charge density was supplied:
 number of electron     279.0000020 magnetization 
 keeping initial charge density in first step


--------------------------------------------------------------------------------------------------------


 Maximum index for non-local projection operator         1201
 Maximum index for augmentation-charges          725 (set IRDMAX)


--------------------------------------------------------------------------------------------------------


 First call to EWALD:  gamma=   0.141
 Maximum number of real-space cells 3x 3x 3
 Maximum number of reciprocal cells 3x 3x 3

    FEWALD:  cpu time      0.0022: real time      0.0022


--------------------------------------- Ionic step        1  -------------------------------------------




--------------------------------------- Iteration      1(   1)  ---------------------------------------


    POTLOK:  cpu time      0.0329: real time      0.0632
    SETDIJ:  cpu time      0.0056: real time      0.0057
     EDDAV:  cpu time      8.7520: real time      8.7540
       DOS:  cpu time      0.0022: real time      0.0023
    CHARGE:  cpu time      0.1775: real time      0.1775
    MIXING:  cpu time      0.0035: real time      0.0035
    --------------------------------------------
      LOOP:  cpu time      8.9737: real time      9.0063

 eigenvalue-minimisations  :  5824
 total energy-change (2. order) :-0.1141809E+03  (-0.1333529E-05)
 number of electron     279.0000020 magnetization 
 augmentation part      -68.7529748 magnetization 

 Broyden mixing:
  rms(total) = 0.44885E-03    rms(broyden)= 0.44885E-03
  rms(prec ) = 0.49571E-03
  weight for this iteration     100.00

 Free energy of the ion-electron system (eV)
  ---------------------------------------------------
  alpha Z        PSCENC =       325.71046388
  Ewald energy   TEWEN  =    -10938.20894542
  -Hartree energ DENC   =     -1860.74223006
  -exchange      EXHF   =         0.00000000
  -V(xc)+E(xc)   XCENC  =     -1761.40143689
  PAW double counting   =     15099.21805550   -12824.39253490
  entropy T*S    EENTRO =        -0.11261138
  eigenvalues    EBANDS =     -1272.24010145
  atomic energy  EATOM  =     13117.98845597
  Solvation  Ediel_sol  =         0.00000000
  ---------------------------------------------------
  free energy    TOTEN  =      -114.18088474 eV

  energy without entropy =     -114.06827336  energy(sigma->0) =     -114.12457905


--------------------------------------------------------------------------------------------------------




--------------------------------------- Iteration      1(   2)  ---------------------------------------


    POTLOK:  cpu time      0.0249: real time      0.0372
    SETDIJ:  cpu time      0.0039: real time      0.0039
     EDDAV:  cpu time      8.6239: real time      8.6247
       DOS:  cpu time      0.0010: real time      0.0010
    CHARGE:  cpu time      0.1714: real time      0.1714
    MIXING:  cpu time      0.0009: real time      0.0009
    --------------------------------------------
      LOOP:  cpu time      8.8260: real time      8.8390

 eigenvalue-minimisations  :  5760
 total energy-change (2. order) : 0.6290703E-03  (-0.1299993E-05)
 number of electron     279.0000020 magnetization 
 augmentation part      -68.7530004 magnetization 

 Broyden mixing:
  rms(total) = 0.24264E-03    rms(broyden)= 0.24263E-03
  rms(prec ) = 0.26901E-03
  weight for this iteration     100.00

 eigenvalues of (default mixing * dielectric matrix)
  average eigenvalue GAMMA=   1.0000
  1.0000

 Free energy of the ion-electron system (eV)
  ---------------------------------------------------
  alpha Z        PSCENC =       325.71046388
  Ewald energy   TEWEN  =    -10938.20894542
  -Hartree energ DENC   =     -1860.74239430
  -exchange      EXHF   =         0.00000000
  -V(xc)+E(xc)   XCENC  =     -1761.40144623
  PAW double counting   =     15099.26226192   -12824.43722021
  entropy T*S    EENTRO =        -0.11261140
  eigenvalues    EBANDS =     -1272.23881990
  atomic energy  EATOM  =     13117.98845597
  Solvation  Ediel_sol  =         0.00000000
  ---------------------------------------------------
  free energy    TOTEN  =      -114.18025567 eV

  energy without entropy =     -114.06764427  energy(sigma->0) =     -114.12394997


--------------------------------------------------------------------------------------------------------




--------------------------------------- Iteration      1(   3)  ---------------------------------------


    POTLOK:  cpu time      0.0401: real time      0.0413
    SETDIJ:  cpu time      0.0037: real time      0.0037
     EDDAV:  cpu time      6.6583: real time      6.6588
       DOS:  cpu time      0.0008: real time      0.0008
    --------------------------------------------
      LOOP:  cpu time      6.7031: real time      6.7048

 eigenvalue-minimisations  :  4032
 total energy-change (2. order) : 0.4411049E-07  (-0.1800660E-07)
 number of electron     279.0000020 magnetization 
 augmentation part      -68.7530004 magnetization 

 Free energy of the ion-electron system (eV)
  ---------------------------------------------------
  alpha Z        PSCENC =       325.71046388
  Ewald energy   TEWEN  =    -10938.20894542
  -Hartree energ DENC   =     -1860.74261500
  -exchange      EXHF   =         0.00000000
  -V(xc)+E(xc)   XCENC  =     -1761.40142581
  PAW double counting   =     15099.25340082   -12824.42834736
  entropy T*S    EENTRO =        -0.11261138
  eigenvalues    EBANDS =     -1272.23863134
  atomic energy  EATOM  =     13117.98845597
  Solvation  Ediel_sol  =         0.00000000
  ---------------------------------------------------
  free energy    TOTEN  =      -114.18025562 eV

  energy without entropy =     -114.06764424  energy(sigma->0) =     -114.12394993


--------------------------------------------------------------------------------------------------------




 average (electrostatic) potential at core
  the test charge radii are     1.4908  1.1312  1.1875
  (the norm of the test charge is              1.0000)
       1 -46.1957       2 -46.1579       3 -46.1380       4 -46.1448       5 -46.2186
       6 -46.1742       7 -46.1680       8 -46.1327       9 -49.2574      10 -49.2901
      11 -49.2314      12 -49.2415      13 -49.2886      14 -49.2575      15 -49.1701
      16 -49.2729      17 -93.6655      18 -93.6374      19 -93.5779      20 -93.9166
      21 -93.6932      22 -93.6551      23 -93.5931      24 -93.6464      25 -93.6951
      26 -93.6502      27 -93.6806      28 -93.3534      29 -93.7149      30 -93.6814
      31 -93.5991      32 -93.5671      33 -93.5781      34 -93.5383      35 -93.5754
      36 -93.5875      37 -93.5823      38 -93.5662      39 -93.5805      40 -93.5555
      41 -93.8981



 E-fermi :   1.4299     XC(G=0):  -7.4988     alpha+bet : -7.3077

 val. band max:        1.4276914479   @ k =   0.3333  -0.3333   0.3333
 cond. band min:       1.4406993551   @ k =  -0.3333   0.3333   0.3333
 fundamental gap:      0.0130079071
 Fermi energy:         1.4298837334

 k-point     1 :       0.0000    0.0000    0.0000
  band No.  band energies     occupation 
      1     -19.5422      2.00000
      2     -19.5346      2.00000
      3     -19.5280      2.00000
      4     -19.5102      2.00000
      5     -19.5084      2.00000
      6     -19.4913      2.00000
      7     -19.4802      2.00000
      8     -19.4291      2.00000
      9     -10.8287      2.00000
     10     -10.6784      2.00000
     11     -10.5295      2.00000
     12     -10.5176      2.00000
     13     -10.4335      2.00000
     14     -10.3694      2.00000
     15     -10.3429      2.00000
     16     -10.3201      2.00000
     17     -10.3088      2.00000
     18     -10.2942      2.00000
     19     -10.2758      2.00000
     20     -10.2558      2.00000
     21     -10.2480      2.00000
     22     -10.2195      2.00000
     23     -10.1883      2.00000
     24     -10.1846      2.00000
     25     -10.1788      2.00000
     26     -10.1633      2.00000
     27     -10.1297      2.00000
     28     -10.1262      2.00000
     29     -10.0694      2.00000
     30     -10.0583      2.00000
     31     -10.0572      2.00000
     32      -9.9868      2.00000
     33      -9.8876      2.00000
     34      -6.9216      2.00000
     35      -6.5083      2.00000
     36      -6.4938      2.00000
     37      -6.4618      2.00000
     38      -6.3901      2.00000
     39      -6.3827      2.00000
     40      -6.3745      2.00000
     41      -6.3688      2.00000
     42      -6.3629      2.00000
     43      -6.3595      2.00000
     44      -6.3551      2.00000
     45      -6.3532      2.00000
     46      -6.3501      2.00000
     47      -6.3467      2.00000
     48      -6.3464      2.00000
     49      -6.3383      2.00000
     50      -6.3368      2.00000
     51      -6.3341      2.00000
     52      -6.3322      2.00000
     53      -6.3268      2.00000
     54      -6.3168      2.00000
     55      -6.3137      2.00000
     56      -6.3098      2.00000
     57      -6.3019      2.00000
     58      -6.2976      2.00000
     59      -6.2722      2.00000
     60      -6.2698      2.00000
     61      -6.2570      2.00000
     62      -6.0385      2.00000
     63      -6.0058      2.00000
     64      -5.9972      2.00000
     65      -5.6318      2.00000
     66      -2.0658      2.00000
     67      -1.9519      2.00000
     68      -1.9255      2.00000
     69      -1.8590      2.00000
     70      -1.8278      2.00000
     71      -1.7826      2.00000
     72      -1.7341      2.00000
     73      -1.7166      2.00000
     74      -1.6975      2.00000
     75      -1.6410      2.00000
     76      -1.5864      2.00000
     77      -1.4495      2.00000
     78      -1.2827      2.00000
     79      -0.9073      2.00000
     80      -0.8600      2.00000
     81      -0.8459      2.00000
     82      -0.7939      2.00000
     83      -0.7317      2.00000
     84      -0.6488      2.00000
     85      -0.5889      2.00000
     86      -0.5623      2.00000
     87      -0.5571      2.00000
     88      -0.5141      2.00000
     89      -0.4056      2.00000
     90      -0.3573      2.00000
     91      -0.3183      2.00000
     92      -0.2841      2.00000
     93      -0.2625      2.00000
     94      -0.2435      2.00000
     95      -0.1870      2.00000
     96      -0.1838      2.00000
     97      -0.1613      2.00000
     98      -0.1444      2.00000
     99      -0.1140      2.00000
    100      -0.0917      2.00000
    101      -0.0783      2.00000
    102      -0.0745      2.00000
    103      -0.0414      2.00000
    104      -0.0334      2.00000
    105      -0.0157      2.00000
    106      -0.0059      2.00000
    107       0.0183      2.00000
    108       0.0329      2.00000
    109       0.0455      2.00000
    110       0.0726      2.00000
    111       0.0802      2.00000
    112       0.0964      2.00000
    113       0.1188      2.00000
    114       0.1328      2.00000
    115       0.1588      2.00000
    116       0.1715      2.00000
    117       0.1859      2.00000
    118       0.2010      2.00000
    119       0.2121      2.00000
    120       0.2436      2.00000
    121       0.2650      2.00000
    122       0.2909      2.00000
    123       0.2923      2.00000
    124       0.3325      2.00000
    125       0.3480      2.00000
    126       0.3925      2.00000
    127       0.4211      2.00000
    128       0.4532      2.00000
    129       0.5032      2.00000
    130       0.5113      2.00000
    131       0.5151      2.00000
    132       0.5477      2.00000
    133       0.5684      2.00000
    134       0.6223      2.00000
    135       0.6764      2.00000
    136       0.7208      2.00000
    137       0.7999      1.99999
    138       0.8315      1.99998
    139       1.1260      1.96834
    140       1.4174      1.07061
    141       3.0658      0.00000
    142       3.0887      0.00000
    143       3.1126      0.00000
    144       3.3179      0.00000
    145       3.3487      0.00000
    146       3.3571      0.00000
    147       3.4102      0.00000
    148       3.5163      0.00000
    149       3.6003      0.00000
    150       3.6186      0.00000
    151       3.8360      0.00000
    152       4.0826      0.00000
    153       5.0834      0.00000
    154       5.1611      0.00000
    155       5.3500      0.00000
    156       5.6771      0.00000
    157       5.7065      0.00000
    158       5.7798      0.00000
    159       5.8484      0.00000
    160       5.9250      0.00000
    161       5.9821      0.00000
    162       5.9948      0.00000
    163       6.0146      0.00000
    164       6.0622      0.00000
    165       6.1020      0.00000
    166       6.1452      0.00000
    167       6.1601      0.00000
    168       6.2076      0.00000
    169       6.2828      0.00000
    170       6.3286      0.00000
    171       6.4075      0.00000
    172       6.4692      0.00000
    173       6.4803      0.00000
    174       6.5089      0.00000
    175       6.5244      0.00000
    176       6.5534      0.00000
    177       6.5559      0.00000
    178       6.6490      0.00000
    179       6.6577      0.00000
    180       6.6982      0.00000
    181       6.7122      0.00000
    182       6.7433      0.00000
    183       6.7869      0.00000
    184       6.8320      0.00000
    185       6.8635      0.00000
    186       6.9174      0.00000
    187       6.9588      0.00000
    188       7.0410      0.00000
    189       7.0432      0.00000
    190       7.0562      0.00000
    191       7.1079      0.00000
    192       7.1257      0.00000

 k-point     2 :       0.3333    0.0000    0.0000
  band No.  band energies     occupation 
      1     -19.5422      2.00000
      2     -19.5346      2.00000
      3     -19.5280      2.00000
      4     -19.5102      2.00000
      5     -19.5084      2.00000
      6     -19.4913      2.00000
      7     -19.4802      2.00000
      8     -19.4291      2.00000
      9     -10.8148      2.00000
     10     -10.6546      2.00000
     11     -10.5776      2.00000
     12     -10.5045      2.00000
     13     -10.4679      2.00000
     14     -10.3993      2.00000
     15     -10.3707      2.00000
     16     -10.3220      2.00000
     17     -10.3035      2.00000
     18     -10.2837      2.00000
     19     -10.2580      2.00000
     20     -10.2383      2.00000
     21     -10.2268      2.00000
     22     -10.1903      2.00000
     23     -10.1855      2.00000
     24     -10.1774      2.00000
     25     -10.1694      2.00000
     26     -10.1539      2.00000
     27     -10.1497      2.00000
     28     -10.1126      2.00000
     29     -10.0807      2.00000
     30     -10.0606      2.00000
     31     -10.0543      2.00000
     32      -9.9956      2.00000
     33      -9.9024      2.00000
     34      -6.8181      2.00000
     35      -6.6006      2.00000
     36      -6.4405      2.00000
     37      -6.4172      2.00000
     38      -6.3922      2.00000
     39      -6.3864      2.00000
     40      -6.3764      2.00000
     41      -6.3689      2.00000
     42      -6.3664      2.00000
     43      -6.3609      2.00000
     44      -6.3573      2.00000
     45      -6.3540      2.00000
     46      -6.3500      2.00000
     47      -6.3475      2.00000
     48      -6.3431      2.00000
     49      -6.3420      2.00000
     50      -6.3369      2.00000
     51      -6.3307      2.00000
     52      -6.3259      2.00000
     53      -6.3204      2.00000
     54      -6.3169      2.00000
     55      -6.3100      2.00000
     56      -6.3037      2.00000
     57      -6.2961      2.00000
     58      -6.2857      2.00000
     59      -6.2706      2.00000
     60      -6.2612      2.00000
     61      -6.2456      2.00000
     62      -6.1296      2.00000
     63      -6.1109      2.00000
     64      -5.9366      2.00000
     65      -5.7486      2.00000
     66      -1.9989      2.00000
     67      -1.9129      2.00000
     68      -1.8384      2.00000
     69      -1.8054      2.00000
     70      -1.7517      2.00000
     71      -1.7067      2.00000
     72      -1.6894      2.00000
     73      -1.6241      2.00000
     74      -1.5552      2.00000
     75      -1.5223      2.00000
     76      -1.4481      2.00000
     77      -1.3253      2.00000
     78      -1.2360      2.00000
     79      -0.9423      2.00000
     80      -0.8726      2.00000
     81      -0.8202      2.00000
     82      -0.7901      2.00000
     83      -0.7580      2.00000
     84      -0.7292      2.00000
     85      -0.7073      2.00000
     86      -0.6882      2.00000
     87      -0.6393      2.00000
     88      -0.5906      2.00000
     89      -0.5445      2.00000
     90      -0.4909      2.00000
     91      -0.4467      2.00000
     92      -0.3969      2.00000
     93      -0.3354      2.00000
     94      -0.3111      2.00000
     95      -0.2640      2.00000
     96      -0.2352      2.00000
     97      -0.2118      2.00000
     98      -0.1754      2.00000
     99      -0.1416      2.00000
    100      -0.1147      2.00000
    101      -0.0498      2.00000
    102      -0.0453      2.00000
    103      -0.0285      2.00000
    104      -0.0103      2.00000
    105       0.0043      2.00000
    106       0.0284      2.00000
    107       0.0426      2.00000
    108       0.0508      2.00000
    109       0.0660      2.00000
    110       0.0920      2.00000
    111       0.1018      2.00000
    112       0.1097      2.00000
    113       0.1246      2.00000
    114       0.1347      2.00000
    115       0.1531      2.00000
    116       0.1592      2.00000
    117       0.1950      2.00000
    118       0.2102      2.00000
    119       0.2279      2.00000
    120       0.2402      2.00000
    121       0.2640      2.00000
    122       0.2707      2.00000
    123       0.2884      2.00000
    124       0.3043      2.00000
    125       0.3300      2.00000
    126       0.3565      2.00000
    127       0.3827      2.00000
    128       0.4202      2.00000
    129       0.4627      2.00000
    130       0.5027      2.00000
    131       0.5207      2.00000
    132       0.5244      2.00000
    133       0.5578      2.00000
    134       0.5724      2.00000
    135       0.5950      2.00000
    136       0.6606      2.00000
    137       0.7439      2.00000
    138       0.8668      1.99993
    139       0.9656      1.99897
    140       1.4515      0.87842
    141       3.1263      0.00000
    142       3.1523      0.00000
    143       3.2909      0.00000
    144       3.3234      0.00000
    145       3.4007      0.00000
    146       3.4923      0.00000
    147       3.5336      0.00000
    148       3.8083      0.00000
    149       3.9639      0.00000
    150       4.0450      0.00000
    151       4.2456      0.00000
    152       4.3242      0.00000
    153       4.9764      0.00000
    154       5.1888      0.00000
    155       5.3028      0.00000
    156       5.3426      0.00000
    157       5.4130      0.00000
    158       5.5440      0.00000
    159       5.7083      0.00000
    160       5.7496      0.00000
    161       5.8496      0.00000
    162       5.9000      0.00000
    163       5.9432      0.00000
    164       6.0206      0.00000
    165       6.0601      0.00000
    166       6.0947      0.00000
    167       6.1380      0.00000
    168       6.2149      0.00000
    169       6.2599      0.00000
    170       6.3279      0.00000
    171       6.3891      0.00000
    172       6.4523      0.00000
    173       6.4846      0.00000
    174       6.5223      0.00000
    175       6.5539      0.00000
    176       6.5664      0.00000
    177       6.5902      0.00000
    178       6.6356      0.00000
    179       6.6561      0.00000
    180       6.6684      0.00000
    181       6.7029      0.00000
    182       6.7333      0.00000
    183       6.7534      0.00000
    184       6.8050      0.00000
    185       6.8520      0.00000
    186       6.8671      0.00000
    187       6.9198      0.00000
    188       6.9438      0.00000
    189       6.9583      0.00000
    190       6.9825      0.00000
    191       7.0187      0.00000
    192       7.0618      0.00000

 k-point     3 :       0.0000    0.3333    0.0000
  band No.  band energies     occupation 
      1     -19.5422      2.00000
      2     -19.5346      2.00000
      3     -19.5280      2.00000
      4     -19.5102      2.00000
      5     -19.5084      2.00000
      6     -19.4913      2.00000
      7     -19.4802      2.00000
      8     -19.4291      2.00000
      9     -10.8236      2.00000
     10     -10.6789      2.00000
     11     -10.5084      2.00000
     12     -10.4962      2.00000
     13     -10.4593      2.00000
     14     -10.4046      2.00000
     15     -10.3528      2.00000
     16     -10.3422      2.00000
     17     -10.3166      2.00000
     18     -10.2982      2.00000
     19     -10.2766      2.00000
     20     -10.2684      2.00000
     21     -10.2338      2.00000
     22     -10.2192      2.00000
     23     -10.1886      2.00000
     24     -10.1609      2.00000
     25     -10.1488      2.00000
     26     -10.1329      2.00000
     27     -10.1238      2.00000
     28     -10.1120      2.00000
     29     -10.0806      2.00000
     30     -10.0762      2.00000
     31     -10.0730      2.00000
     32      -9.9900      2.00000
     33      -9.8886      2.00000
     34      -6.8348      2.00000
     35      -6.5766      2.00000
     36      -6.4428      2.00000
     37      -6.4246      2.00000
     38      -6.3947      2.00000
     39      -6.3834      2.00000
     40      -6.3770      2.00000
     41      -6.3682      2.00000
     42      -6.3661      2.00000
     43      -6.3625      2.00000
     44      -6.3566      2.00000
     45      -6.3521      2.00000
     46      -6.3485      2.00000
     47      -6.3457      2.00000
     48      -6.3441      2.00000
     49      -6.3419      2.00000
     50      -6.3384      2.00000
     51      -6.3301      2.00000
     52      -6.3261      2.00000
     53      -6.3190      2.00000
     54      -6.3150      2.00000
     55      -6.3109      2.00000
     56      -6.3079      2.00000
     57      -6.2907      2.00000
     58      -6.2875      2.00000
     59      -6.2717      2.00000
     60      -6.2574      2.00000
     61      -6.2515      2.00000
     62      -6.1175      2.00000
     63      -6.1075      2.00000
     64      -5.9468      2.00000
     65      -5.7499      2.00000
     66      -2.0490      2.00000
     67      -1.9555      2.00000
     68      -1.9114      2.00000
     69      -1.8407      2.00000
     70      -1.7774      2.00000
     71      -1.7429      2.00000
     72      -1.6598      2.00000
     73      -1.5722      2.00000
     74      -1.4717      2.00000
     75      -1.4079      2.00000
     76      -1.3943      2.00000
     77      -1.3049      2.00000
     78      -1.2273      2.00000
     79      -0.9752      2.00000
     80      -0.8757      2.00000
     81      -0.8511      2.00000
     82      -0.7796      2.00000
     83      -0.7645      2.00000
     84      -0.7327      2.00000
     85      -0.7086      2.00000
     86      -0.6849      2.00000
     87      -0.5888      2.00000
     88      -0.5694      2.00000
     89      -0.5418      2.00000
     90      -0.5114      2.00000
     91      -0.4696      2.00000
     92      -0.3530      2.00000
     93      -0.3327      2.00000
     94      -0.3160      2.00000
     95      -0.2770      2.00000
     96      -0.2380      2.00000
     97      -0.1911      2.00000
     98      -0.1815      2.00000
     99      -0.1439      2.00000
    100      -0.1042      2.00000
    101      -0.0891      2.00000
    102      -0.0605      2.00000
    103      -0.0575      2.00000
    104      -0.0315      2.00000
    105       0.0015      2.00000
    106       0.0192      2.00000
    107       0.0400      2.00000
    108       0.0497      2.00000
    109       0.0643      2.00000
    110       0.0821      2.00000
    111       0.1016      2.00000
    112       0.1199      2.00000
    113       0.1299      2.00000
    114       0.1384      2.00000
    115       0.1667      2.00000
    116       0.1764      2.00000
    117       0.1904      2.00000
    118       0.2102      2.00000
    119       0.2244      2.00000
    120       0.2459      2.00000
    121       0.2620      2.00000
    122       0.2680      2.00000
    123       0.3120      2.00000
    124       0.3249      2.00000
    125       0.3383      2.00000
    126       0.3667      2.00000
    127       0.3922      2.00000
    128       0.4137      2.00000
    129       0.4497      2.00000
    130       0.4770      2.00000
    131       0.4921      2.00000
    132       0.5282      2.00000
    133       0.5390      2.00000
    134       0.6097      2.00000
    135       0.6236      2.00000
    136       0.6911      2.00000
    137       0.7127      2.00000
    138       0.7505      2.00000
    139       0.9105      1.99976
    140       1.4109      1.10665
    141       3.1314      0.00000
    142       3.1456      0.00000
    143       3.3788      0.00000
    144       3.4332      0.00000
    145       3.4676      0.00000
    146       3.5184      0.00000
    147       3.7478      0.00000
    148       3.8177      0.00000
    149       3.9809      0.00000
    150       4.0816      0.00000
    151       4.1412      0.00000
    152       4.2946      0.00000
    153       5.0334      0.00000
    154       5.1171      0.00000
    155       5.2600      0.00000
    156       5.2855      0.00000
    157       5.3322      0.00000
    158       5.4119      0.00000
    159       5.5428      0.00000
    160       5.7303      0.00000
    161       5.8370      0.00000
    162       5.8706      0.00000
    163       5.9282      0.00000
    164       5.9421      0.00000
    165       6.0009      0.00000
    166       6.0691      0.00000
    167       6.0944      0.00000
    168       6.1786      0.00000
    169       6.2915      0.00000
    170       6.3369      0.00000
    171       6.3873      0.00000
    172       6.4106      0.00000
    173       6.4550      0.00000
    174       6.4905      0.00000
    175       6.5083      0.00000
    176       6.5490      0.00000
    177       6.5845      0.00000
    178       6.6302      0.00000
    179       6.6414      0.00000
    180       6.7192      0.00000
    181       6.7284      0.00000
    182       6.7795      0.00000
    183       6.8436      0.00000
    184       6.8496      0.00000
    185       6.8825      0.00000
    186       6.9071      0.00000
    187       6.9352      0.00000
    188       6.9717      0.00000
    189       7.0251      0.00000
    190       7.0574      0.00000
    191       7.0715      0.00000
    192       7.1149      0.00000

 k-point     4 :       0.0000    0.0000    0.3333
  band No.  band energies     occupation 
      1     -19.5422      2.00000
      2     -19.5346      2.00000
      3     -19.5280      2.00000
      4     -19.5102      2.00000
      5     -19.5084      2.00000
      6     -19.4913      2.00000
      7     -19.4802      2.00000
      8     -19.4291      2.00000
      9     -10.8165      2.00000
     10     -10.6583      2.00000
     11     -10.5798      2.00000
     12     -10.4878      2.00000
     13     -10.4775      2.00000
     14     -10.3894      2.00000
     15     -10.3415      2.00000
     16     -10.3355      2.00000
     17     -10.3006      2.00000
     18     -10.2834      2.00000
     19     -10.2819      2.00000
     20     -10.2355      2.00000
     21     -10.2241      2.00000
     22     -10.1887      2.00000
     23     -10.1832      2.00000
     24     -10.1773      2.00000
     25     -10.1686      2.00000
     26     -10.1626      2.00000
     27     -10.1466      2.00000
     28     -10.1326      2.00000
     29     -10.0836      2.00000
     30     -10.0744      2.00000
     31     -10.0557      2.00000
     32      -9.9735      2.00000
     33      -9.8951      2.00000
     34      -6.8211      2.00000
     35      -6.6040      2.00000
     36      -6.4467      2.00000
     37      -6.4133      2.00000
     38      -6.3923      2.00000
     39      -6.3853      2.00000
     40      -6.3761      2.00000
     41      -6.3688      2.00000
     42      -6.3665      2.00000
     43      -6.3613      2.00000
     44      -6.3565      2.00000
     45      -6.3537      2.00000
     46      -6.3504      2.00000
     47      -6.3456      2.00000
     48      -6.3441      2.00000
     49      -6.3426      2.00000
     50      -6.3374      2.00000
     51      -6.3326      2.00000
     52      -6.3291      2.00000
     53      -6.3256      2.00000
     54      -6.3126      2.00000
     55      -6.3105      2.00000
     56      -6.3025      2.00000
     57      -6.2893      2.00000
     58      -6.2885      2.00000
     59      -6.2694      2.00000
     60      -6.2583      2.00000
     61      -6.2486      2.00000
     62      -6.1276      2.00000
     63      -6.1076      2.00000
     64      -5.9328      2.00000
     65      -5.7456      2.00000
     66      -2.0398      2.00000
     67      -1.9187      2.00000
     68      -1.8673      2.00000
     69      -1.8110      2.00000
     70      -1.7539      2.00000
     71      -1.6987      2.00000
     72      -1.6458      2.00000
     73      -1.5926      2.00000
     74      -1.5533      2.00000
     75      -1.4748      2.00000
     76      -1.4362      2.00000
     77      -1.3979      2.00000
     78      -1.2140      2.00000
     79      -0.9805      2.00000
     80      -0.9059      2.00000
     81      -0.8163      2.00000
     82      -0.7869      2.00000
     83      -0.7594      2.00000
     84      -0.7350      2.00000
     85      -0.7041      2.00000
     86      -0.6415      2.00000
     87      -0.6241      2.00000
     88      -0.5998      2.00000
     89      -0.5567      2.00000
     90      -0.5238      2.00000
     91      -0.4232      2.00000
     92      -0.4001      2.00000
     93      -0.3583      2.00000
     94      -0.3067      2.00000
     95      -0.2641      2.00000
     96      -0.1921      2.00000
     97      -0.1526      2.00000
     98      -0.1398      2.00000
     99      -0.1275      2.00000
    100      -0.0883      2.00000
    101      -0.0598      2.00000
    102      -0.0518      2.00000
    103      -0.0409      2.00000
    104      -0.0256      2.00000
    105      -0.0047      2.00000
    106       0.0109      2.00000
    107       0.0311      2.00000
    108       0.0370      2.00000
    109       0.0456      2.00000
    110       0.0576      2.00000
    111       0.0867      2.00000
    112       0.1060      2.00000
    113       0.1233      2.00000
    114       0.1347      2.00000
    115       0.1497      2.00000
    116       0.1631      2.00000
    117       0.1925      2.00000
    118       0.1997      2.00000
    119       0.2082      2.00000
    120       0.2468      2.00000
    121       0.2506      2.00000
    122       0.2717      2.00000
    123       0.2903      2.00000
    124       0.3117      2.00000
    125       0.3348      2.00000
    126       0.3618      2.00000
    127       0.3964      2.00000
    128       0.4271      2.00000
    129       0.4477      2.00000
    130       0.4686      2.00000
    131       0.5104      2.00000
    132       0.5344      2.00000
    133       0.5467      2.00000
    134       0.5859      2.00000
    135       0.6137      2.00000
    136       0.6846      2.00000
    137       0.8089      1.99999
    138       0.9041      1.99980
    139       0.9542      1.99923
    140       1.4092      1.11648
    141       3.1311      0.00000
    142       3.1693      0.00000
    143       3.2832      0.00000
    144       3.3228      0.00000
    145       3.4046      0.00000
    146       3.4978      0.00000
    147       3.5489      0.00000
    148       3.8131      0.00000
    149       3.8790      0.00000
    150       4.1024      0.00000
    151       4.1894      0.00000
    152       4.4297      0.00000
    153       4.9531      0.00000
    154       5.1498      0.00000
    155       5.2141      0.00000
    156       5.3203      0.00000
    157       5.4045      0.00000
    158       5.5556      0.00000
    159       5.6947      0.00000
    160       5.8095      0.00000
    161       5.8837      0.00000
    162       5.9152      0.00000
    163       5.9429      0.00000
    164       6.0032      0.00000
    165       6.0402      0.00000
    166       6.0582      0.00000
    167       6.0868      0.00000
    168       6.1718      0.00000
    169       6.2344      0.00000
    170       6.3100      0.00000
    171       6.3662      0.00000
    172       6.4038      0.00000
    173       6.4416      0.00000
    174       6.5210      0.00000
    175       6.5350      0.00000
    176       6.5643      0.00000
    177       6.6079      0.00000
    178       6.6361      0.00000
    179       6.6692      0.00000
    180       6.7355      0.00000
    181       6.7570      0.00000
[...]
  319                  map_gather                            0.004082                 70   8
  320                  m_alltoallv_z                         0.030626                 70   8
  321                  map_scatter                           0.004135                 70   8
  322                map_backward                          0.047128                  168   7
  323                  map_gather                            0.002974                 84   8
  324                  m_alltoallv_z                         0.038867                 84   8
  325                  map_scatter                           0.005100                 84   8
  326          m_sumb_d                              0.000724                         70   4
  327          m_max_i                               0.000421                         14   4
  328        forhar                                0.102905                           28   3
  329          m_sumb_d                              0.013898                         28   4
  330        strehar                               0.020315                           14   3
  331          m_sumb_d                              0.001262                         14   4
  332        chggra                                0.048690                           14   3
  333          fft3d_mpi                             0.029546                         42   4
  334            fftbrc_mpi                            0.028315                       42   5
  335              fftbas_plan_mpi                       0.028293                     42   6
  336                dfftw_execute                         0.004614                  126   7
  337                map_backward                          0.007797                   28   7
  338                  map_gather                            0.000506                 14   8
  339                  m_alltoallv_z                         0.006449                 14   8
  340                  map_scatter                           0.000812                 14   8
  341                map_forward                           0.013694                   56   7
  342                  map_gather                            0.001146                 28   8
  343                  m_alltoallv_z                         0.010900                 28   8
  344                  map_scatter                           0.001581                 28   8
  345          m_max_i                               0.001269                         14   4
  346          m_sumb_d                              0.000104                         28   4
  347          pothar                                0.002046                         14   4
  348            m_sumb_d                              0.000465                       14   5
  349        brmix                                 0.010080                           14   3
  350          m_max_i                               0.000132                         14   4
  351          m_sumb_d                              0.000707                         84   4
  352          brpre                                 0.000237                         14   4
  353          setg0                                 0.002125                         14   4
  354          broyd                                 0.002935                         14   4
  355            m_sumb_d                              0.000593                      135   5
  356            brget                                 0.000603                      311   5
  357            brsav                                 0.000243                      108   5
  358        m_bcast_d                             0.038573                           28   3
  359      potlok                                0.285743                             14   2
  360        fft3d_mpi                             0.145949                          182   3
  361          fftbrc_mpi                            0.139363                        182   4
  362            fftbas_plan_mpi                       0.139290                      182   5
  363              dfftw_execute                         0.021971                    546   6
  364              map_forward                           0.050457                    196   6
  365                map_gather                            0.003506                  112   7
  366                m_alltoallv_z                         0.039744                  112   7
  367                map_scatter                           0.006981                  112   7
  368              map_backward                          0.057297                    168   6
  369                map_gather                            0.002968                   84   7
  370                m_alltoallv_z                         0.049089                   84   7
  371                map_scatter                           0.005057                   84   7
  372        m_sumb_d                              0.000755                           70   3
  373        m_max_i                               0.000804                           14   3
  374        pothar                                0.001929                           14   3
  375          m_sumb_d                              0.000355                         14   4
  376        m_bcast_d                             0.011016                           14   3
  377      set_dd_magatom                        0.000004                             14   2
  378      set_dd_paw                            0.019156                             14   2
  379        set_rsgf_all                          0.000008                           14   3
  380        m_sumb_d                              0.018796                           98   3
  381      wavpre_noio                           0.057483                             13   2
  382        stufak                                0.027491                           13   3
  383      densta                                0.000403                              1   2
  384        m_sumb_d                              0.000220                           36   3
  385        setwdes                               0.000000                            1   3
 
 Flat profile
 ============
 
             routine name                   CPU           calls
 ---------------------------------------------------------------
 dfftw_execute                          57.054182      170829
 fftwav_mpi                             54.053383       42046
 lapack                                 50.895655       13736
 orth1                                  43.042898       42384
 m_alltoallv_z                          40.949953       57059
 m_alltoall_d                           40.743873      106316
 racc0                                  30.002493       13736
 vhamil                                 25.565624       13736
 m_sumb_d                               24.040001      120999
 map_gather                             21.551341       57059
 ggemm                                  21.281759       18020
 total_time                             20.932146           1
 rpro1                                  16.939289        9452
 map_forward                            15.524050       85232
 crrexp_mul_work_add                    14.640310      563176
 crrexp_mul_wave                        13.966775     1014340
 map_scatter                            12.804602       57059
 redis_pw                               10.361909       38744
 rpromu_gemm                             9.806962      208936
 pdssyex_zheevx                          7.152564         714
 lincom                                  6.592980         910
 fftbas_plan_mpi                         5.938492       56943
 eddav                                   5.008677          51
 phaser                                  3.890714        3262
 m_bcast_z                               3.070163       16509
 w1_copy                                 3.066695       41208
 elmin                                   2.679698          14
 eccp                                    2.294535        4284
 kinhamil                                2.250875       13736
 fftext_mpi                              1.949527       13736
 apply_precond                           1.645665        9452
 rspher_all                              1.386441         183
 pw_charge                               1.100715        3570
 setdij_                                 0.841865         430
 force_and_stress                        0.796845          14
 potlok                                  0.622639          65
 overl1                                  0.593096       13736
 rpromu                                  0.423390        5096
 setup_precond                           0.404756        4284
 overl                                   0.319707       23384
 m_bcast_d                               0.311335       27694
 choleski                                0.306340         196
 strkin                                  0.161124          14
 strnlr                                  0.141801          14
 augmentation_charge                     0.127434          51
 redis_proj                              0.125952       48392
 hamiltmu                                0.118105       13736
 potxc                                   0.112438          14
 fft3d_mpi                               0.101737       56943
 soft_charge                             0.100840          51
 forhar                                  0.089007          28
 rpro_isp                                0.084403        2548
 w1_projall                              0.058746        9452
 fftwav_w1                               0.058104       26758
 map_backward                            0.057108       28654
 raccmu_                                 0.050184       13736
 fornlr                                  0.047480          14
 newband                                 0.046698       14450
 fftbas_mpi                              0.046651       55782
 forloc                                  0.046266          14
 orthch                                  0.032482          14
 stufak                                  0.032339          15
 wavpre_noio                             0.029991          13
 depsum                                  0.023339          51
 brmix                                   0.020915          51
 strelo                                  0.020068          14
 strehar                                 0.019053          14
 chggra                                  0.015724          14
 truncate_high_frequency_w1              0.011029       18020
 bandgap                                 0.010844          14
 densta                                  0.009777          52
 m_max_i                                 0.009615         197
 rsp                                     0.009430          14
 setwdes                                 0.009298        5068
 pothar                                  0.008979          79
 setg0                                   0.008454          65
 set_charge                              0.005140          51
 fft_gq                                  0.004888          51
 rad_lda_xc                              0.004476          24
 broyd                                   0.003630          51
 set_dd_paw                              0.002776          79
 brget                                   0.001797         745
 rcp                                     0.001430          14
 brpre                                   0.001358          51
 rad_gga_xc                              0.001278          24
 brsav                                   0.001196         330
 proall                                  0.000980          14
 splcof                                  0.000613          60
 fordep                                  0.000574          14
 splval                                  0.000554        4995
 fewald                                  0.000550          14
 rad_pot                                 0.000469          24
 fftbrc_mpi                              0.000420        1161
 rad_proj                                0.000358          12
 set_dd_magatom                          0.000257          79
 set_rsgf_all                            0.000053          79
 brgrid                                  0.000046           1
 crpa_reader                             0.000033           1
 vectorpot                               0.000032          52
 rad_aug_charge                          0.000018           3
 redis_pw_over_bands                     0.000014          14
 kpar_sync_all                           0.000012          14
 fermat_razor                            0.000007           1
 rotate_active_occupied_orbital          0.000005          14
 rad_pot_weight                          0.000004          12
 rad_aug_proj                            0.000003           6
 ---------------------------------------------------------------
  summed up times    578.68330597877502     
 
 Accumulative profile
 ====================
 
             routine name                   CPU           calls
 ---------------------------------------------------------------
 total_time                            578.683306           1
 elmin                                 456.172560          14
 eddav                                 445.746219          51
 fftwav_mpi                            175.356298       42046
 fft3d_mpi                             154.028535       56943
 fftbas_plan_mpi                       153.879727       56943
 fftbas_mpi                            153.072566       55782
 fftwav_w1                             113.197824       26758
 hamiltmu                              108.925784       13736
 force_and_stress                       87.104825          14
 rpro_isp                               81.876725        2548
 map_forward                            78.375330       85232
 strnlr                                 61.764040          14
 dfftw_execute                          57.054182      170829
 lapack                                 50.895655       13736
 raccmu_                                47.211986       13736
 racc0                                  46.568706       13736
 orth1                                  43.042898       42384
 m_alltoallv_z                          40.949953       57059
 m_alltoall_d                           40.743873      106316
 kinhamil                               36.030069       13736
 redis_pw                               35.281126       38744
 fftext_mpi                             33.779194       13736
 newband                                27.974618       14450
 vhamil                                 25.565624       13736
 m_sumb_d                               24.040001      120999
 w1_projall                             23.164044        9452
 rpro1                                  23.105298        9452
 map_gather                             21.551341       57059
 ggemm                                  21.281759       18020
 fornlr                                 20.688952          14
 rpromu                                 19.569717        5096
 redis_proj                             15.950609       48392
 crrexp_mul_work_add                    14.640310      563176
 crrexp_mul_wave                        13.966775     1014340
 map_scatter                            12.804602       57059
 map_backward                           12.511724       28654
 rpromu_gemm                             9.806962      208936
 set_charge                              8.834153          51
 soft_charge                             8.603376          51
 pdssyex_zheevx                          7.152571         714
 proall                                  6.634290          14
 lincom                                  6.592980         910
 orthch                                  4.608810          14
 phaser                                  3.890714        3262
 m_bcast_z                               3.070163       16509
 w1_copy                                 3.066695       41208
 eccp                                    2.650115        4284
 apply_precond                           1.645665        9452
 rspher_all                              1.386441         183
 potlok                                  1.336260          65
 pw_charge                               1.100715        3570
 setdij_                                 0.896782         430
 fftbrc_mpi                              0.854232        1161
 overl1                                  0.593096       13736
 setup_precond                           0.412324        4284
 overl                                   0.319707       23384
 m_bcast_d                               0.311335       27694
 choleski                                0.306340         196
 potxc                                   0.230473          14
 augmentation_charge                     0.193995          51
 fordep                                  0.182631          14
 strkin                                  0.166577          14
 set_dd_paw                              0.113119          79
 forhar                                  0.102905          28
 wavpre_noio                             0.057483          13
 chggra                                  0.048690          14
 forloc                                  0.046858          14
 fft_gq                                  0.045649          51
 brmix                                   0.045317          51
 densta                                  0.032358          52
 stufak                                  0.032339          15
 depsum                                  0.031641          51
 strelo                                  0.020737          14
 strehar                                 0.020315          14
 fewald                                  0.015159          14
 pothar                                  0.011092          79
 truncate_high_frequency_w1              0.011029       18020
 bandgap                                 0.010844          14
 m_max_i                                 0.009615         197
 rsp                                     0.009430          14
 setwdes                                 0.009298        5068
 setg0                                   0.008454          65
 broyd                                   0.008120          51
 rad_pot                                 0.006223          24
 rad_lda_xc                              0.004476          24
 brget                                   0.001797         745
 rcp                                     0.001430          14
 brpre                                   0.001358          51
 rad_gga_xc                              0.001278          24
 brsav                                   0.001196         330
 splcof                                  0.000613          60
 splval                                  0.000554        4995
 rad_proj                                0.000358          12
 set_dd_magatom                          0.000257          79
 brgrid                                  0.000242           1
 set_rsgf_all                            0.000053          79
 crpa_reader                             0.000033           1
 vectorpot                               0.000032          52
 rad_aug_charge                          0.000018           3
 redis_pw_over_bands                     0.000014          14
 kpar_sync_all                           0.000012          14
 fermat_razor                            0.000007           1
 rotate_active_occupied_orbital          0.000005          14
 rad_pot_weight                          0.000004          12
 rad_aug_proj                            0.000003           6
 ---------------------------------------------------------------
 
Profiling took   0.568673  0.335672  0.003677  0.003259 seconds
Profiling took   0.554304 seconds
