<?xml version="1.0" encoding="ISO-8859-1"?>
<modeling>
 <generator>
  <i name="program" type="string">vasp </i>
  <i name="version" type="string">6.4.3  </i>
  <i name="subversion" type="string">19Mar24 (build Jan  2 2025 14:32:07) complex                          parallel </i>
  <i name="platform" type="string">LinuxGNU </i>
  <i name="date" type="string">2025 11 13 </i>
  <i name="time" type="string">19:18:35 </i>
 </generator>
 <incar>
  <i type="string" name="SYSTEM">Cubic CsPbI3 + I_i(0) defect in relaxed 40 atom supercell</i>
  <i type="string" name="ALGO">Normal</i>
  <i type="int" name="NELM">    60</i>
  <i type="int" name="IBRION">     3</i>
  <i name="EDIFF">      0.00000100</i>
  <i name="EDIFFG">     -0.02000000</i>
  <i type="int" name="NSW">   200</i>
  <i type="int" name="ISIF">     2</i>
  <i type="int" name="ISYM">     0</i>
  <i name="ENCUT">    400.00000000</i>
  <i name="POTIM">      0.00000000</i>
  <i type="string" name="LREAL">Auto	</i>
  <i type="int" name="ISMEAR">     0</i>
  <i name="SIGMA">      0.20000000</i>
  <i type="string" name="GGA">PE</i>
  <i type="int" name="IVDW">    12</i>
  <i name="SPRING">     -5.00000000</i>
 </incar>
 <primitive_cell>
  <structure name="primitive_cell" >
   <crystal>
    <varray name="basis" >
     <v>      12.57433319       0.00000000       0.00000000 </v>
     <v>       0.00000000      12.57433319       0.00000000 </v>
     <v>       0.00000000       0.00000000      12.57433319 </v>
    </varray>
    <i name="volume">   1988.17629733 </i>
    <varray name="rec_basis" >
     <v>       0.07952708       0.00000000       0.00000000 </v>
     <v>       0.00000000       0.07952708       0.00000000 </v>
     <v>       0.00000000       0.00000000       0.07952708 </v>
    </varray>
   </crystal>
   <varray name="positions" >
    <v>       0.01406868       0.00786552       0.00563252 </v>
    <v>       0.00734542       0.01189654       0.50074790 </v>
    <v>       0.01305082       0.49273615       0.01052354 </v>
    <v>       0.00823434       0.51070197       0.50865125 </v>
    <v>       0.51369331       0.99519210       0.00537623 </v>
    <v>       0.50740591       0.00198402       0.49049572 </v>
    <v>       0.51989715       0.49649769       0.01297713 </v>
    <v>       0.50409515       0.56059552       0.50371117 </v>
    <v>       0.26905796       0.23647477       0.22477280 </v>
    <v>       0.26722286       0.25155641       0.71653815 </v>
    <v>       0.22515521       0.72079454       0.24337855 </v>
    <v>       0.21784002       0.74470788       0.78376719 </v>
    <v>       0.75866879       0.28796380       0.29916044 </v>
    <v>       0.75048360       0.24825632       0.75118888 </v>
    <v>       0.77617507       0.79222678       0.26889771 </v>
    <v>       0.78551221       0.76333415       0.77580280 </v>
    <v>       0.96555851       0.05295468       0.25248227 </v>
    <v>       0.04234014       0.98494223       0.75307096 </v>
    <v>       0.03543087       0.45750106       0.26061327 </v>
    <v>       0.98985699       0.53136418       0.76026219 </v>
    <v>       0.56071998       0.05779980       0.24758645 </v>
    <v>       0.45910510       0.00997811       0.75207554 </v>
    <v>       0.48983630       0.45319214       0.26154414 </v>
    <v>       0.53658527       0.47004515       0.75845048 </v>
    <v>       0.26365267       0.95718586       0.05005604 </v>
    <v>       0.25576005       0.03078368       0.45649030 </v>
    <v>       0.26756078       0.53539210       0.99777407 </v>
    <v>       0.25823843       0.50594591       0.53248335 </v>
    <v>       0.76430592       0.02810714       0.96023609 </v>
    <v>       0.75600175       0.97627115       0.54395791 </v>
    <v>       0.76819364       0.43512266       0.02040324 </v>
    <v>       0.75659691       0.54614021       0.49227519 </v>
    <v>       0.07273284       0.25080063       0.96648414 </v>
    <v>       0.98403343       0.26018676       0.54736194 </v>
    <v>       0.98001370       0.75035850       0.03505351 </v>
    <v>       0.02533357       0.76072535       0.47246421 </v>
    <v>       0.46701372       0.24358054       0.97382918 </v>
    <v>       0.52573785       0.24854461       0.52307472 </v>
    <v>       0.57629405       0.74450023       0.02229252 </v>
    <v>       0.49179217       0.76506972       0.36394180 </v>
    <v>       0.49472991       0.74129875       0.68111451 </v>
   </varray>
  </structure>
  <varray name="primitive_index" >
   <v type="int" >        1 </v>
   <v type="int" >        2 </v>
   <v type="int" >        3 </v>
   <v type="int" >        4 </v>
   <v type="int" >        5 </v>
   <v type="int" >        6 </v>
   <v type="int" >        7 </v>
   <v type="int" >        8 </v>
   <v type="int" >        9 </v>
   <v type="int" >       10 </v>
   <v type="int" >       11 </v>
   <v type="int" >       12 </v>
   <v type="int" >       13 </v>
   <v type="int" >       14 </v>
   <v type="int" >       15 </v>
   <v type="int" >       16 </v>
   <v type="int" >       17 </v>
   <v type="int" >       18 </v>
   <v type="int" >       19 </v>
   <v type="int" >       20 </v>
   <v type="int" >       21 </v>
   <v type="int" >       22 </v>
   <v type="int" >       23 </v>
   <v type="int" >       24 </v>
   <v type="int" >       25 </v>
   <v type="int" >       26 </v>
   <v type="int" >       27 </v>
   <v type="int" >       28 </v>
   <v type="int" >       29 </v>
   <v type="int" >       30 </v>
   <v type="int" >       31 </v>
   <v type="int" >       32 </v>
   <v type="int" >       33 </v>
   <v type="int" >       34 </v>
   <v type="int" >       35 </v>
   <v type="int" >       36 </v>
   <v type="int" >       37 </v>
   <v type="int" >       38 </v>
   <v type="int" >       39 </v>
   <v type="int" >       40 </v>
   <v type="int" >       41 </v>
  </varray>
 </primitive_cell>
 <kpoints>
  <generation param="Monkhorst-Pack">
   <v type="int" name="divisions">       3        3        3 </v>
   <v name="usershift">      0.00000000       0.00000000       0.00000000 </v>
   <v name="genvec1">      0.33333333       0.00000000       0.00000000 </v>
   <v name="genvec2">      0.00000000       0.33333333       0.00000000 </v>
   <v name="genvec3">      0.00000000       0.00000000       0.33333333 </v>
   <v name="shift">      0.00000000       0.00000000       0.00000000 </v>
  </generation>
  <varray name="kpointlist" >
   <v>       0.00000000       0.00000000       0.00000000 </v>
   <v>       0.33333333       0.00000000       0.00000000 </v>
   <v>       0.00000000       0.33333333       0.00000000 </v>
   <v>       0.00000000       0.00000000       0.33333333 </v>
   <v>       0.33333333       0.33333333       0.00000000 </v>
   <v>       0.00000000       0.33333333       0.33333333 </v>
   <v>       0.33333333       0.00000000       0.33333333 </v>
   <v>      -0.33333333       0.33333333       0.00000000 </v>
   <v>      -0.33333333       0.00000000       0.33333333 </v>
   <v>       0.00000000      -0.33333333       0.33333333 </v>
   <v>       0.33333333       0.33333333       0.33333333 </v>
   <v>      -0.33333333       0.33333333       0.33333333 </v>
   <v>      -0.33333333      -0.33333333       0.33333333 </v>
   <v>       0.33333333      -0.33333333       0.33333333 </v>
  </varray>
  <varray name="weights" >
   <v>       0.03703704 </v>
   <v>       0.07407407 </v>
   <v>       0.07407407 </v>
   <v>       0.07407407 </v>
   <v>       0.07407407 </v>
   <v>       0.07407407 </v>
   <v>       0.07407407 </v>
   <v>       0.07407407 </v>
   <v>       0.07407407 </v>
   <v>       0.07407407 </v>
   <v>       0.07407407 </v>
   <v>       0.07407407 </v>
   <v>       0.07407407 </v>
   <v>       0.07407407 </v>
  </varray>
 </kpoints>
 <parameters>
  <separator name="general" >
   <i type="string" name="SYSTEM">Cubic CsPbI3 + I_i(0) defect in relaxed</i>
   <i type="logical" name="LCOMPAT"> F  </i>
  </separator>
  <separator name="electronic" >
   <i type="string" name="PREC">normal</i>
   <i name="ENMAX">    400.00000000</i>
   <i name="ENAUG">    407.93300000</i>
   <i name="EDIFF">      0.00000100</i>
   <i type="int" name="IALGO">    38</i>
   <i type="int" name="IWAVPR">    11</i>
   <i type="int" name="NBANDS">   170</i>
   <i type="int" name="NBANDSLOW">    -1</i>
   <i type="int" name="NBANDSHIGH">    -1</i>
   <i name="NELECT">    279.00000000</i>
   <i type="int" name="TURBO">     0</i>
   <i type="int" name="IRESTART">     0</i>
   <i type="int" name="NREBOOT">     0</i>
   <i type="int" name="NMIN">     0</i>
   <i name="EREF">      0.00000000</i>
   <separator name="electronic smearing" >
    <i type="int" name="ISMEAR">     0</i>
    <i name="SIGMA">      0.20000000</i>
    <i name="KSPACING">      0.50000000</i>
    <i type="logical" name="KGAMMA"> T  </i>
    <i type="logical" name="KBLOWUP"> T  </i>
   </separator>
   <separator name="electronic projectors" >
    <i type="logical" name="LREAL"> T  </i>
    <v name="ROPT">     -0.00050000     -0.00050000     -0.00050000</v>
    <i type="int" name="LMAXPAW">  -100</i>
    <i type="int" name="LMAXMIX">     2</i>
    <i type="logical" name="NLSPLINE"> F  </i>
   </separator>
   <separator name="electronic startup" >
    <i type="int" name="ISTART">     0</i>
    <i type="int" name="ICHARG">     2</i>
    <i type="int" name="INIWAV">     1</i>
   </separator>
   <separator name="electronic spin" >
    <i type="int" name="ISPIN">     1</i>
    <i type="logical" name="LNONCOLLINEAR"> F  </i>
    <v name="MAGMOM">      1.00000000      1.00000000      1.00000000      1.00000000      1.00000000      1.00000000      1.00000000      1.00000000      1.00000000      1.00000000      1.00000000      1.00000000      1.00000000      1.00000000      1.00000000      1.00000000      1.00000000      1.00000000      1.00000000      1.00000000
      1.00000000      1.00000000      1.00000000      1.00000000      1.00000000      1.00000000      1.00000000      1.00000000      1.00000000      1.00000000      1.00000000      1.00000000      1.00000000      1.00000000      1.00000000      1.00000000      1.00000000      1.00000000      1.00000000      1.00000000
      1.00000000</v>
    <i name="NUPDOWN">     -1.00000000</i>
    <i type="logical" name="LSORBIT"> F  </i>
    <v name="SAXIS">      0.00000000      0.00000000      1.00000000</v>
    <i type="logical" name="LSPIRAL"> F  </i>
    <v name="QSPIRAL">      0.00000000      0.00000000      0.00000000</v>
    <i type="logical" name="LZEROZ"> F  </i>
   </separator>
   <separator name="electronic exchange-correlation" >
    <i type="logical" name="LASPH"> F  </i>
   </separator>
   <separator name="electronic convergence" >
    <i type="int" name="NELM">    60</i>
    <i type="int" name="NELMDL">    -5</i>
    <i type="int" name="NELMIN">     2</i>
    <i name="ENINI">    400.00000000</i>
    <separator name="electronic convergence detail" >
     <i type="logical" name="LDIAG"> T  </i>
     <i type="logical" name="LSUBROT"> F  </i>
     <i name="WEIMIN">      0.00100000</i>
     <i name="EBREAK">      0.00000000</i>
     <i name="DEPER">      0.30000000</i>
     <i type="int" name="NRMM">     4</i>
     <i name="TIME">      0.40000000</i>
    </separator>
   </separator>
   <separator name="electronic mixer" >
    <i name="AMIX">      0.40000000</i>
    <i name="BMIX">      1.00000000</i>
    <i name="AMIN">      0.10000000</i>
    <i name="AMIX_MAG">      1.60000000</i>
    <i name="BMIX_MAG">      1.00000000</i>
    <separator name="electronic mixer details" >
     <i type="int" name="IMIX">     4</i>
     <i type="logical" name="MIXFIRST"> F  </i>
     <i type="int" name="MAXMIX">   -45</i>
     <i name="WC">    100.00000000</i>
     <i type="int" name="INIMIX">     1</i>
     <i type="int" name="MIXPRE">     1</i>
     <i type="int" name="MREMOVE">     5</i>
    </separator>
   </separator>
   <separator name="electronic dipolcorrection" >
    <i type="logical" name="LDIPOL"> F  </i>
    <i type="logical" name="LMONO"> F  </i>
    <i type="int" name="IDIPOL">     0</i>
    <i name="EPSILON">      1.00000000</i>
    <v name="DIPOL">   -100.00000000   -100.00000000   -100.00000000</v>
    <i name="EFIELD">      0.00000000</i>
    <i type="logical" name="LVACPOTAV"> F  </i>
   </separator>
  </separator>
  <separator name="grids" >
   <i type="int" name="NGX">    64</i>
   <i type="int" name="NGY">    64</i>
   <i type="int" name="NGZ">    64</i>
   <i type="int" name="NGXF">   128</i>
   <i type="int" name="NGYF">   128</i>
   <i type="int" name="NGZF">   128</i>
   <i type="logical" name="ADDGRID"> F  </i>
  </separator>
  <separator name="ionic" >
   <i type="int" name="NSW">   200</i>
   <i type="int" name="IBRION">     3</i>
   <i type="int" name="MDALGO">     0</i>
   <i type="int" name="ISIF">     2</i>
   <i name="PSTRESS">      0.00000000</i>
   <i name="EDIFFG">     -0.02000000</i>
   <i type="int" name="NFREE">     0</i>
   <i name="POTIM">      0.00000000</i>
   <i name="SMASS">     -3.00000000</i>
   <i name="SCALEE">      1.00000000</i>
  </separator>
  <separator name="ionic md" >
   <i name="TEBEG">      0.00010000</i>
   <i name="TEEND">      0.00010000</i>
   <i type="int" name="NBLOCK">     1</i>
   <i type="int" name="KBLOCK">   200</i>
   <i type="int" name="NPACO">   256</i>
   <i name="APACO">     10.00000000</i>
  </separator>
  <separator name="symmetry" >
   <i type="int" name="ISYM">     0</i>
   <i name="SYMPREC">      0.00001000</i>
  </separator>
  <separator name="dos" >
   <i type="int" name="LORBIT">     0</i>
   <v name="RWIGS">     -1.00000000     -1.00000000     -1.00000000</v>
   <i type="int" name="NEDOS">   301</i>
   <i name="EMIN">     10.00000000</i>
   <i name="EMAX">    -10.00000000</i>
   <i name="EFERMI">      0.00000000</i>
  </separator>
  <separator name="writing" >
   <i type="int" name="NWRITE">     2</i>
   <i type="logical" name="LWAVE"> T  </i>
   <i type="logical" name="LDOWNSAMPLE"> F  </i>
   <i type="logical" name="LCHARG"> T  </i>
   <i type="logical" name="LPARD"> F  </i>
   <i type="logical" name="LVTOT"> F  </i>
   <i type="logical" name="LVHAR"> F  </i>
   <i type="logical" name="LELF"> F  </i>
   <i type="logical" name="LOPTICS"> F  </i>
   <v name="STM">      0.00000000      0.00000000      0.00000000      0.00000000      0.00000000      0.00000000      0.00000000</v>
  </separator>
  <separator name="performance" >
   <i type="int" name="NPAR">    10</i>
   <i type="int" name="NSIM">     4</i>
   <i type="int" name="NBLK">    -1</i>
   <i type="logical" name="LPLANE"> T  </i>
   <i type="logical" name="LSCALAPACK"> T  </i>
   <i type="logical" name="LSCAAWARE"> F  </i>
   <i type="logical" name="LSCALU"> F  </i>
   <i type="logical" name="LASYNC"> F  </i>
   <i type="logical" name="LORBITALREAL"> F  </i>
  </separator>
  <separator name="miscellaneous" >
   <i type="int" name="IDIOT">     3</i>
   <i type="int" name="PHON_NSTRUCT">    -1</i>
   <i type="logical" name="LMUSIC"> F  </i>
   <v name="POMASS">    207.20000000    132.90000000    126.90400000</v>
   <v name="DARWINR">      0.00000000      0.00000000      0.00000000</v>
   <v name="DARWINV">      1.00000000      1.00000000      1.00000000</v>
   <i type="logical" name="LCORR"> T  </i>
  </separator>
  <i type="logical" name="GGA_COMPAT"> T  </i>
  <i type="logical" name="LBERRY"> F  </i>
  <i type="int" name="ICORELEVEL">     0</i>
  <i type="logical" name="LDAU"> F  </i>
  <i type="int" name="I_CONSTRAINED_M">     0</i>
  <separator name="electronic exchange-correlation" >
   <i type="string" name="GGA    ">PE</i>
   <i type="string" name="XC_C">1</i>
   <i type="int" name="VOSKOWN">     0</i>
   <i type="logical" name="LHFCALC"> F  </i>
   <i type="string" name="PRECFOCK"></i>
   <i type="logical" name="LSYMGRAD"> F  </i>
   <i type="logical" name="LHFONE"> F  </i>
   <i type="logical" name="LRHFCALC"> F  </i>
   <i type="logical" name="LTHOMAS"> F  </i>
   <i type="logical" name="LMODELHF"> F  </i>
   <i type="logical" name="LFOCKACE"> F  </i>
   <i name="ENCUT4O">     -1.00000000</i>
   <i type="int" name="EXXOEP">     0</i>
   <i type="int" name="FOURORBIT">     0</i>
   <i name="AEXX">      0.00000000</i>
   <i name="HFALPHA">      0.00000000</i>
   <i name="MCALPHA">      0.00000000</i>
   <i name="ALDAX">      1.00000000</i>
   <i name="AGGAX">      1.00000000</i>
   <i name="AMGGAX">      1.00000000</i>
   <i name="ALDAC">      1.00000000</i>
   <i name="AGGAC">      1.00000000</i>
   <i name="AMGGAC">      1.00000000</i>
   <i type="int" name="NKREDX">     1</i>
   <i type="int" name="NKREDY">     1</i>
   <i type="int" name="NKREDZ">     1</i>
   <i type="logical" name="SHIFTRED"> F  </i>
   <i type="logical" name="ODDONLY"> F  </i>
   <i type="logical" name="EVENONLY"> F  </i>
   <i type="int" name="LMAXFOCK">     0</i>
   <i type="int" name="NMAXFOCKAE">     0</i>
   <i type="logical" name="LFOCKAEDFT"> F  </i>
   <i name="HFSCREEN">      0.00000000</i>
   <i name="HFSCREENC">      0.00000000</i>
   <i type="int" name="NBANDSGWLOW">     0</i>
  </separator>
  <separator name="vdW DFT" >
   <i type="logical" name="LUSE_VDW"> F  </i>
   <i type="int" name="IVDW_NL">    -1</i>
   <i type="logical" name="LSPIN_VDW"> F  </i>
   <i name="ZAB_VDW">     -0.84910000</i>
   <i name="GAMMA_VDW">      1.39626340</i>
   <i name="ALPHA_VDW">      0.00000000</i>
   <i name="PARAM1">      0.12340000</i>
   <i name="PARAM2">      1.00000000</i>
   <i name="BPARAM">      6.30000000</i>
   <i name="CPARAM">      0.00930000</i>
  </separator>
  <separator name="model GW" >
   <i type="int" name="MODEL_GW">     0</i>
   <i name="MODEL_EPS0">     29.09526289</i>
   <i name="MODEL_ALPHA">      1.00000000</i>
  </separator>
  <separator name="linear response parameters" >
   <i type="logical" name="LEPSILON"> F  </i>
   <i type="logical" name="LRPA"> F  </i>
   <i type="logical" name="LNABLA"> F  </i>
   <i type="logical" name="LVEL"> F  </i>
   <i name="CSHIFT">      0.10000000</i>
   <i name="OMEGAMAX">     -1.00000000</i>
   <i name="DEG_THRESHOLD">      0.00200000</i>
   <i name="RTIME">     -0.10000000</i>
   <i name="WPLASMAI">      0.00000000</i>
   <v name="DFIELD">      0.00000000      0.00000000      0.00000000</v>
   <v name="WPLASMA">      0.00000000      0.00000000      0.00000000      0.00000000      0.00000000      0.00000000      0.00000000      0.00000000      0.00000000</v>
  </separator>
  <separator name="orbital magnetization" >
   <i type="logical" name="NUCIND"> F  </i>
   <v name="MAGPOS">      0.00000000      0.00000000      0.00000000</v>
   <i type="logical" name="LNICSALL"> T  </i>
   <i type="logical" name="ORBITALMAG"> F  </i>
   <i type="logical" name="LMAGBLOCH"> F  </i>
   <i type="logical" name="LCHIMAG"> F  </i>
   <i type="logical" name="LGAUGE"> T  </i>
   <i type="int" name="MAGATOM">     0</i>
   <v name="MAGDIPOL">      0.00000000      0.00000000      0.00000000</v>
   <v name="AVECCONST">      0.00000000      0.00000000      0.00000000</v>
  </separator>
  <separator name="response functions" >
   <i type="logical" name="LALL_IN_ONE"> F  </i>
   <i type="int" name="IALL_IN_ONE">    -1</i>
   <i type="int" name="NBANDS_WAVE">    -1</i>
   <i type="logical" name="LFINITE_TEMPERATURE"> F  </i>
   <i type="logical" name="LADDER"> F  </i>
   <i type="logical" name="LRPAFORCE"> F  </i>
   <i type="logical" name="LFXC"> F  </i>
   <i type="logical" name="LHARTREE"> T  </i>
   <i type="int" name="IBSE">     0</i>
   <v type="int" name="KPOINT">    -1     0     0     0</v>
   <i type="logical" name="LTCTC"> F  </i>
   <i type="logical" name="LTCTE"> F  </i>
   <i type="logical" name="LTETE"> F  </i>
   <i type="logical" name="LTRIPLET"> F  </i>
   <i type="logical" name="LFXCEPS"> F  </i>
   <i type="logical" name="LFXHEG"> F  </i>
   <i type="int" name="NATURALO">     2</i>
   <i type="logical" name="LHOLEGF"> F  </i>
   <i type="logical" name="L2ORDER"> F  </i>
   <i type="logical" name="LDMP1"> F  </i>
   <i type="logical" name="LMP2LT"> F  </i>
   <i type="logical" name="LSMP2LT"> F  </i>
   <i type="logical" name="LGWLF"> F  </i>
   <i name="ENCUTGW">     -1.60000002</i>
   <i name="ENCUTGWSOFT">     -1.60000002</i>
   <i name="ENCUTLF">     -1.00000000</i>
   <i type="logical" name="ESF_SPLINES"> F  </i>
   <i name="ESF_CONV">      0.01000000</i>
   <i type="int" name="ESF_NINTER">    15</i>
   <i type="int" name="LMAXMP2">    -1</i>
   <i name="SCISSOR">      0.00000000</i>
   <i type="int" name="NOMEGA">     0</i>
   <i type="int" name="NOMEGAR">     0</i>
   <i type="int" name="NBANDSGW">    -1</i>
   <i type="int" name="NBANDSO">    -1</i>
   <i type="int" name="NBANDSV">    -1</i>
   <i type="int" name="NELMGW">     1</i>
   <i type="int" name="NELMHF">     1</i>
   <i type="int" name="DIM">     3</i>
   <i type="int" name="IESPILON">     4</i>
   <i type="int" name="ANTIRES">     0</i>
   <i name="OMEGAMAX">    -30.00000000</i>
   <i name="OMEGAMIN">    -30.00000000</i>
   <i name="OMEGATL">   -200.00000000</i>
   <i type="int" name="OMEGAGRID">     0</i>
   <i name="CSHIFT">     -0.10000000</i>
   <i type="logical" name="LSELFENERGY"> F  </i>
   <i type="logical" name="LSPECTRAL"> F  </i>
   <i type="logical" name="LSPECTRALGW"> F  </i>
   <i type="logical" name="LSINGLES"> F  </i>
   <i type="logical" name="LFERMIGW"> F  </i>
   <i type="logical" name="ODDONLYGW"> F  </i>
   <i type="logical" name="EVENONLYGW"> F  </i>
   <i type="int" name="NKREDLFX">     1</i>
   <i type="int" name="NKREDLFY">     1</i>
   <i type="int" name="NKREDLFZ">     1</i>
   <i type="int" name="MAXMEM">  2800</i>
   <i type="int" name="TELESCOPE">     0</i>
   <i type="int" name="NTAUPAR">    -1</i>
   <i type="int" name="NOMEGAPAR">    -1</i>
   <i name="DAMP_NEWTON">      0.80000001</i>
   <i name="LAMBDA">      1.00000000</i>
  </separator>
  <separator name="External order field" >
   <i name="OFIELD_KAPPA">      0.00000000</i>
   <v name="OFIELD_K">      0.00000000      0.00000000      0.00000000</v>
   <i name="OFIELD_Q6_NEAR">      0.00000000</i>
   <i name="OFIELD_Q6_FAR">      0.00000000</i>
   <i name="OFIELD_A">      0.00000000</i>
  </separator>
  <separator name="optional k-points parameters" >
   <i type="int" name="KPOINTS_OPT_MODE">     1</i>
   <i type="logical" name="LKPOINTS_OPT"> F  </i>
  </separator>
 </parameters>
 <atominfo>
  <atoms>      41 </atoms>
  <types>       3 </types>
  <array name="atoms" >
   <dimension dim="1">ion</dimension>
   <field type="string">element</field>
   <field type="int">atomtype</field>
   <set>
    <rc><c>Pb</c><c>   1</c></rc>
    <rc><c>Pb</c><c>   1</c></rc>
    <rc><c>Pb</c><c>   1</c></rc>
    <rc><c>Pb</c><c>   1</c></rc>
    <rc><c>Pb</c><c>   1</c></rc>
    <rc><c>Pb</c><c>   1</c></rc>
    <rc><c>Pb</c><c>   1</c></rc>
    <rc><c>Pb</c><c>   1</c></rc>
    <rc><c>Cs</c><c>   2</c></rc>
    <rc><c>Cs</c><c>   2</c></rc>
    <rc><c>Cs</c><c>   2</c></rc>
    <rc><c>Cs</c><c>   2</c></rc>
    <rc><c>Cs</c><c>   2</c></rc>
    <rc><c>Cs</c><c>   2</c></rc>
    <rc><c>Cs</c><c>   2</c></rc>
    <rc><c>Cs</c><c>   2</c></rc>
    <rc><c>I </c><c>   3</c></rc>
    <rc><c>I </c><c>   3</c></rc>
    <rc><c>I </c><c>   3</c></rc>
    <rc><c>I </c><c>   3</c></rc>
    <rc><c>I </c><c>   3</c></rc>
    <rc><c>I </c><c>   3</c></rc>
    <rc><c>I </c><c>   3</c></rc>
    <rc><c>I </c><c>   3</c></rc>
    <rc><c>I </c><c>   3</c></rc>
    <rc><c>I </c><c>   3</c></rc>
    <rc><c>I </c><c>   3</c></rc>
    <rc><c>I </c><c>   3</c></rc>
    <rc><c>I </c><c>   3</c></rc>
    <rc><c>I </c><c>   3</c></rc>
    <rc><c>I </c><c>   3</c></rc>
    <rc><c>I </c><c>   3</c></rc>
    <rc><c>I </c><c>   3</c></rc>
    <rc><c>I </c><c>   3</c></rc>
    <rc><c>I </c><c>   3</c></rc>
    <rc><c>I </c><c>   3</c></rc>
    <rc><c>I </c><c>   3</c></rc>
    <rc><c>I </c><c>   3</c></rc>
    <rc><c>I </c><c>   3</c></rc>
    <rc><c>I </c><c>   3</c></rc>
    <rc><c>I </c><c>   3</c></rc>
   </set>
  </array>
  <array name="atomtypes" >
   <dimension dim="1">type</dimension>
   <field type="int">atomspertype</field>
   <field type="string">element</field>
   <field>mass</field>
   <field>valence</field>
   <field type="string">pseudopotential</field>
   <set>
    <rc><c>   8</c><c>Pb</c><c>    207.20000000</c><c>      4.00000000</c><c>  PAW_PBE Pb 08Apr2002                  </c></rc>
    <rc><c>   8</c><c>Cs</c><c>    132.90000000</c><c>      9.00000000</c><c>  PAW_PBE Cs_sv 25Jan2019               </c></rc>
    <rc><c>  25</c><c>I </c><c>    126.90400000</c><c>      7.00000000</c><c>  PAW_PBE I 08Apr2002                   </c></rc>
   </set>
  </array>
 </atominfo>
 <structure name="initialpos" >
  <crystal>
   <varray name="basis" >
    <v>      12.57433319       0.00000000       0.00000000 </v>
    <v>       0.00000000      12.57433319       0.00000000 </v>
    <v>       0.00000000       0.00000000      12.57433319 </v>
   </varray>
   <i name="volume">   1988.17629733 </i>
   <varray name="rec_basis" >
    <v>       0.07952708       0.00000000       0.00000000 </v>
    <v>       0.00000000       0.07952708       0.00000000 </v>
    <v>       0.00000000       0.00000000       0.07952708 </v>
   </varray>
  </crystal>
  <varray name="positions" >
   <v>       0.01406868       0.00786552       0.00563252 </v>
   <v>       0.00734542       0.01189654       0.50074790 </v>
   <v>       0.01305082       0.49273615       0.01052354 </v>
   <v>       0.00823434       0.51070197       0.50865125 </v>
   <v>       0.51369331       0.99519210       0.00537623 </v>
   <v>       0.50740591       0.00198402       0.49049572 </v>
   <v>       0.51989715       0.49649769       0.01297713 </v>
   <v>       0.50409515       0.56059552       0.50371117 </v>
   <v>       0.26905796       0.23647477       0.22477280 </v>
   <v>       0.26722286       0.25155641       0.71653815 </v>
   <v>       0.22515521       0.72079454       0.24337855 </v>
   <v>       0.21784002       0.74470788       0.78376719 </v>
   <v>       0.75866879       0.28796380       0.29916044 </v>
   <v>       0.75048360       0.24825632       0.75118888 </v>
   <v>       0.77617507       0.79222678       0.26889771 </v>
   <v>       0.78551221       0.76333415       0.77580280 </v>
   <v>       0.96555851       0.05295468       0.25248227 </v>
   <v>       0.04234014       0.98494223       0.75307096 </v>
   <v>       0.03543087       0.45750106       0.26061327 </v>
   <v>       0.98985699       0.53136418       0.76026219 </v>
   <v>       0.56071998       0.05779980       0.24758645 </v>
   <v>       0.45910510       0.00997811       0.75207554 </v>
   <v>       0.48983630       0.45319214       0.26154414 </v>
   <v>       0.53658527       0.47004515       0.75845048 </v>
   <v>       0.26365267       0.95718586       0.05005604 </v>
   <v>       0.25576005       0.03078368       0.45649030 </v>
   <v>       0.26756078       0.53539210       0.99777407 </v>
   <v>       0.25823843       0.50594591       0.53248335 </v>
   <v>       0.76430592       0.02810714       0.96023609 </v>
   <v>       0.75600175       0.97627115       0.54395791 </v>
   <v>       0.76819364       0.43512266       0.02040324 </v>
   <v>       0.75659691       0.54614021       0.49227519 </v>
   <v>       0.07273284       0.25080063       0.96648414 </v>
   <v>       0.98403343       0.26018676       0.54736194 </v>
   <v>       0.98001370       0.75035850       0.03505351 </v>
   <v>       0.02533357       0.76072535       0.47246421 </v>
   <v>       0.46701372       0.24358054       0.97382918 </v>
   <v>       0.52573785       0.24854461       0.52307472 </v>
   <v>       0.57629405       0.74450023       0.02229252 </v>
   <v>       0.49179217       0.76506972       0.36394180 </v>
   <v>       0.49472991       0.74129875       0.68111451 </v>
  </varray>
 </structure>
 <calculation>
  <scstep>
   <time name="dav">   19.49   19.49</time>
   <time name="total">   19.58   19.58</time>
   <energy>
    <i name="alphaZ">    325.71046388 </i>
    <i name="ewald"> -10946.16765838 </i>
    <i name="hartreedc">  -1793.63361465 </i>
    <i name="XCdc">  -1769.60395067 </i>
    <i name="pawpsdc">  12287.06968193 </i>
    <i name="pawaedc"> -10010.08791678 </i>
    <i name="eentropy">     -0.31941262 </i>
    <i name="bandstr">    508.03677869 </i>
    <i name="atom">  13117.98845597 </i>
    <i name="e_fr_energy">   1718.99282738 </i>
    <i name="e_wo_entrp">   1719.31224000 </i>
    <i name="e_0_energy">   1719.15253369 </i>
   </energy>
  </scstep>
  <scstep>
   <time name="dav">   24.41   24.42</time>
   <time name="total">   24.42   24.42</time>
   <energy>
    <i name="e_fr_energy">     88.55570802 </i>
    <i name="e_wo_entrp">     88.65837951 </i>
    <i name="e_0_energy">     88.60704376 </i>
   </energy>
  </scstep>
  <scstep>
   <time name="dav">   22.10   22.10</time>
   <time name="total">   22.10   22.10</time>
   <energy>
    <i name="e_fr_energy">   -111.39446866 </i>
    <i name="e_wo_entrp">   -111.25189677 </i>
    <i name="e_0_energy">   -111.32318272 </i>
   </energy>
  </scstep>
  <scstep>
   <time name="dav">   22.92   22.93</time>
   <time name="total">   22.93   22.93</time>
   <energy>
    <i name="e_fr_energy">   -117.13222105 </i>
    <i name="e_wo_entrp">   -116.98890327 </i>
    <i name="e_0_energy">   -117.06056216 </i>
   </energy>
  </scstep>
  <scstep>
   <time name="dav">   23.94   23.94</time>
   <time name="total">   24.66   24.66</time>
   <energy>
    <i name="e_fr_energy">   -117.26740292 </i>
    <i name="e_wo_entrp">   -117.12404037 </i>
    <i name="e_0_energy">   -117.19572165 </i>
   </energy>
  </scstep>
  <scstep>
   <time name="dav">   22.86   22.86</time>
   <time name="total">   23.70   23.70</time>
   <energy>
    <i name="e_fr_energy">   -114.24707223 </i>
    <i name="e_wo_entrp">   -114.12130958 </i>
    <i name="e_0_energy">   -114.18419090 </i>
   </energy>
  </scstep>
  <scstep>
   <time name="dav">   23.39   23.39</time>
   <time name="total">   24.23   24.23</time>
   <energy>
    <i name="e_fr_energy">   -114.01489667 </i>
    <i name="e_wo_entrp">   -113.88668759 </i>
    <i name="e_0_energy">   -113.95079213 </i>
   </energy>
  </scstep>
  <scstep>
   <time name="dav">   22.71   22.71</time>
   <time name="total">   23.54   23.54</time>
   <energy>
    <i name="e_fr_energy">   -114.04097378 </i>
    <i name="e_wo_entrp">   -113.91584088 </i>
    <i name="e_0_energy">   -113.97840733 </i>
   </energy>
  </scstep>
  <scstep>
   <time name="dav">   23.71   23.71</time>
   <time name="total">   24.54   24.54</time>
   <energy>
    <i name="e_fr_energy">   -114.03822885 </i>
    <i name="e_wo_entrp">   -113.91346134 </i>
    <i name="e_0_energy">   -113.97584509 </i>
   </energy>
  </scstep>
  <scstep>
   <time name="dav">   22.11   22.11</time>
   <time name="total">   22.93   22.94</time>
   <energy>
    <i name="e_fr_energy">   -113.99819355 </i>
    <i name="e_wo_entrp">   -113.87497572 </i>
    <i name="e_0_energy">   -113.93658463 </i>
   </energy>
  </scstep>
  <scstep>
   <time name="dav">   22.68   22.68</time>
   <time name="total">   23.52   23.52</time>
   <energy>
    <i name="e_fr_energy">   -113.99883246 </i>
    <i name="e_wo_entrp">   -113.87552026 </i>
    <i name="e_0_energy">   -113.93717636 </i>
   </energy>
  </scstep>
  <scstep>
   <time name="dav">   23.03   23.03</time>
   <time name="total">   23.85   23.85</time>
   <energy>
    <i name="e_fr_energy">   -113.99812704 </i>
    <i name="e_wo_entrp">   -113.87464010 </i>
    <i name="e_0_energy">   -113.93638357 </i>
   </energy>
  </scstep>
  <scstep>
   <time name="dav">   22.77   22.78</time>
   <time name="total">   23.62   23.62</time>
   <energy>
    <i name="e_fr_energy">   -113.99825576 </i>
    <i name="e_wo_entrp">   -113.87450025 </i>
    <i name="e_0_energy">   -113.93637800 </i>
   </energy>
  </scstep>
  <scstep>
   <time name="dav">   22.49   22.49</time>
   <time name="total">   23.33   23.33</time>
   <energy>
    <i name="e_fr_energy">   -113.99857706 </i>
    <i name="e_wo_entrp">   -113.87488431 </i>
    <i name="e_0_energy">   -113.93673068 </i>
   </energy>
  </scstep>
  <scstep>
   <time name="dav">   22.76   22.76</time>
   <time name="total">   23.59   23.59</time>
   <energy>
    <i name="e_fr_energy">   -113.99857425 </i>
    <i name="e_wo_entrp">   -113.87505720 </i>
    <i name="e_0_energy">   -113.93681572 </i>
   </energy>
  </scstep>
  <scstep>
   <time name="dav">   22.84   22.84</time>
   <time name="total">   23.63   23.63</time>
   <energy>
    <i name="e_fr_energy">   -113.99858379 </i>
    <i name="e_wo_entrp">   -113.87506892 </i>
    <i name="e_0_energy">   -113.93682635 </i>
   </energy>
  </scstep>
  <scstep>
   <time name="dav">   22.14   22.15</time>
   <time name="total">   22.96   22.97</time>
   <energy>
    <i name="e_fr_energy">   -113.99859338 </i>
    <i name="e_wo_entrp">   -113.87503454 </i>
    <i name="e_0_energy">   -113.93681396 </i>
   </energy>
  </scstep>
  <scstep>
   <time name="dav">   20.04   20.05</time>
   <time name="total">   20.79   20.80</time>
   <energy>
    <i name="e_fr_energy">   -113.99859495 </i>
    <i name="e_wo_entrp">   -113.87505273 </i>
    <i name="e_0_energy">   -113.93682384 </i>
   </energy>
  </scstep>
  <scstep>
   <time name="dav">   16.33   16.33</time>
   <time name="total">   16.44   16.45</time>
   <energy>
    <i name="alphaZ">    325.71046388 </i>
    <i name="ewald"> -10946.16765838 </i>
    <i name="hartreedc">  -1853.02252538 </i>
    <i name="XCdc">  -1761.26458471 </i>
    <i name="pawpsdc">  15131.01071061 </i>
    <i name="pawaedc"> -12856.25415884 </i>
    <i name="eentropy">     -0.12353761 </i>
    <i name="bandstr">  -1271.87576085 </i>
    <i name="atom">  13117.98845597 </i>
    <i name="e_fr_energy">   -113.99859530 </i>
    <i name="e_wo_entrp">   -113.87505769 </i>
    <i name="e_0_energy">   -113.93682650 </i>
   </energy>
  </scstep>
  <structure>
   <crystal>
    <varray name="basis" >
     <v>      12.57433319       0.00000000       0.00000000 </v>
     <v>       0.00000000      12.57433319       0.00000000 </v>
     <v>       0.00000000       0.00000000      12.57433319 </v>
    </varray>
    <i name="volume">   1988.17629733 </i>
    <varray name="rec_basis" >
     <v>       0.07952708       0.00000000       0.00000000 </v>
     <v>       0.00000000       0.07952708       0.00000000 </v>
     <v>       0.00000000       0.00000000       0.07952708 </v>
    </varray>
   </crystal>
   <varray name="positions" >
    <v>       0.01406868       0.00786552       0.00563252 </v>
    <v>       0.00734542       0.01189654       0.50074790 </v>
    <v>       0.01305082       0.49273615       0.01052354 </v>
    <v>       0.00823434       0.51070197       0.50865125 </v>
    <v>       0.51369331       0.99519210       0.00537623 </v>
    <v>       0.50740591       0.00198402       0.49049572 </v>
    <v>       0.51989715       0.49649769       0.01297713 </v>
    <v>       0.50409515       0.56059552       0.50371117 </v>
    <v>       0.26905796       0.23647477       0.22477280 </v>
    <v>       0.26722286       0.25155641       0.71653815 </v>
    <v>       0.22515521       0.72079454       0.24337855 </v>
    <v>       0.21784002       0.74470788       0.78376719 </v>
    <v>       0.75866879       0.28796380       0.29916044 </v>
    <v>       0.75048360       0.24825632       0.75118888 </v>
    <v>       0.77617507       0.79222678       0.26889771 </v>
    <v>       0.78551221       0.76333415       0.77580280 </v>
    <v>       0.96555851       0.05295468       0.25248227 </v>
    <v>       0.04234014       0.98494223       0.75307096 </v>
    <v>       0.03543087       0.45750106       0.26061327 </v>
    <v>       0.98985699       0.53136418       0.76026219 </v>
    <v>       0.56071998       0.05779980       0.24758645 </v>
    <v>       0.45910510       0.00997811       0.75207554 </v>
    <v>       0.48983630       0.45319214       0.26154414 </v>
    <v>       0.53658527       0.47004515       0.75845048 </v>
    <v>       0.26365267       0.95718586       0.05005604 </v>
    <v>       0.25576005       0.03078368       0.45649030 </v>
    <v>       0.26756078       0.53539210       0.99777407 </v>
    <v>       0.25823843       0.50594591       0.53248335 </v>
    <v>       0.76430592       0.02810714       0.96023609 </v>
    <v>       0.75600175       0.97627115       0.54395791 </v>
    <v>       0.76819364       0.43512266       0.02040324 </v>
    <v>       0.75659691       0.54614021       0.49227519 </v>
    <v>       0.07273284       0.25080063       0.96648414 </v>
    <v>       0.98403343       0.26018676       0.54736194 </v>
    <v>       0.98001370       0.75035850       0.03505351 </v>
    <v>       0.02533357       0.76072535       0.47246421 </v>
    <v>       0.46701372       0.24358054       0.97382918 </v>
    <v>       0.52573785       0.24854461       0.52307472 </v>
    <v>       0.57629405       0.74450023       0.02229252 </v>
    <v>       0.49179217       0.76506972       0.36394180 </v>
    <v>       0.49472991       0.74129875       0.68111451 </v>
   </varray>
  </structure>
  <varray name="forces" >
   <v>      -0.00810872       0.00207253       0.01395520 </v>
   <v>       0.00334254       0.00918425      -0.00865016 </v>
   <v>      -0.00135200      -0.00384632       0.00506524 </v>
   <v>      -0.01169848      -0.00423892      -0.00521591 </v>
   <v>      -0.00667243      -0.01111348       0.01779223 </v>
   <v>       0.00234305       0.02999527       0.00393987 </v>
   <v>      -0.00978036       0.01354094       0.04255318 </v>
   <v>       0.01413137      -0.01998043      -0.07790795 </v>
   <v>       0.00936499       0.00343928       0.00080209 </v>
   <v>       0.00579497       0.02916119      -0.00041572 </v>
   <v>      -0.00309297      -0.03294976       0.00486432 </v>
   <v>      -0.00097737      -0.00629390      -0.02694130 </v>
   <v>      -0.01580385       0.01865390       0.00897499 </v>
   <v>      -0.00906473       0.01077920       0.00280815 </v>
   <v>      -0.00176527      -0.00261990      -0.00239203 </v>
   <v>      -0.01590125       0.01148685       0.00103033 </v>
   <v>      -0.00121935       0.00625457      -0.00050240 </v>
   <v>      -0.01953948      -0.00063801       0.00259697 </v>
   <v>       0.01359578      -0.00550724      -0.00222733 </v>
   <v>      -0.01175304       0.00793915      -0.00256483 </v>
   <v>      -0.01262481      -0.00359660       0.00460824 </v>
   <v>       0.02483152      -0.02844354      -0.00884035 </v>
   <v>       0.01918908       0.00548142      -0.00339538 </v>
   <v>      -0.07236306       0.07028849      -0.04214180 </v>
   <v>      -0.00491807      -0.00130105       0.00523361 </v>
   <v>      -0.00105004       0.00659725       0.00748584 </v>
   <v>      -0.00757502       0.01568953      -0.01534989 </v>
   <v>      -0.00144262       0.00877503       0.01721923 </v>
   <v>      -0.00034445      -0.01578775      -0.00256726 </v>
   <v>       0.00143764      -0.00880524      -0.00058462 </v>
   <v>      -0.00998478      -0.03959535       0.03260729 </v>
   <v>      -0.00611637       0.01027594      -0.03681510 </v>
   <v>      -0.00707368      -0.00962224      -0.00350095 </v>
   <v>      -0.00595990       0.00470020      -0.01899667 </v>
   <v>      -0.00450593      -0.00583316      -0.00148280 </v>
   <v>       0.00472761       0.01564555       0.00705240 </v>
   <v>       0.00744234       0.00664483      -0.02943776 </v>
   <v>       0.02771632      -0.00240771       0.01025960 </v>
   <v>       0.00190977      -0.00066712      -0.01228689 </v>
   <v>       0.00028400       0.01326202       0.03452549 </v>
   <v>       0.11457704      -0.09661968       0.07884283 </v>
  </varray>
  <varray name="stress" >
   <v>      -3.23993220      -0.30339416      -0.10927497 </v>
   <v>      -0.30339433      -4.74319274      -0.67414416 </v>
   <v>      -0.10927431      -0.67414356      -3.93669661 </v>
  </varray>
  <energy>
   <i name="e_fr_energy">   -124.34121105 </i>
   <i name="e_wo_entrp">   -124.21767343 </i>
   <i name="e_0_energy">   -124.27944224 </i>
  </energy>
  <time name="totalsc">  457.45  457.81</time>
 </calculation>
 <calculation>
  <scstep>
   <time name="dav">   22.30   22.30</time>
   <time name="total">   23.14   23.14</time>
   <energy>
    <i name="alphaZ">    325.71046388 </i>
    <i name="ewald"> -10945.86903161 </i>
    <i name="hartreedc">  -1853.29819154 </i>
    <i name="XCdc">  -1761.25875631 </i>
    <i name="pawpsdc">  15130.57930909 </i>
    <i name="pawaedc"> -12855.82348878 </i>
    <i name="eentropy">     -0.12141806 </i>
    <i name="bandstr">  -1271.90649607 </i>
    <i name="atom">  13117.98845597 </i>
    <i name="e_fr_energy">   -113.99915343 </i>
    <i name="e_wo_entrp">   -113.87773536 </i>
    <i name="e_0_energy">   -113.93844440 </i>
   </energy>
  </scstep>
  <scstep>
   <time name="dav">   22.52   22.52</time>
   <time name="total">   23.35   23.35</time>
   <energy>
    <i name="e_fr_energy">   -114.00549022 </i>
    <i name="e_wo_entrp">   -113.88379374 </i>
    <i name="e_0_energy">   -113.94464198 </i>
   </energy>
  </scstep>
  <scstep>
   <time name="dav">   23.33   23.33</time>
   <time name="total">   24.15   24.15</time>
   <energy>
    <i name="e_fr_energy">   -114.00541413 </i>
    <i name="e_wo_entrp">   -113.88367285 </i>
    <i name="e_0_energy">   -113.94454349 </i>
   </energy>
  </scstep>
  <scstep>
   <time name="dav">   23.36   23.36</time>
   <time name="total">   24.19   24.20</time>
   <energy>
    <i name="e_fr_energy">   -114.00536478 </i>
    <i name="e_wo_entrp">   -113.88363110 </i>
    <i name="e_0_energy">   -113.94449794 </i>
   </energy>
  </scstep>
  <scstep>
   <time name="dav">   22.85   22.85</time>
   <time name="total">   23.66   23.66</time>
   <energy>
    <i name="e_fr_energy">   -114.00532338 </i>
    <i name="e_wo_entrp">   -113.88356910 </i>
    <i name="e_0_energy">   -113.94444624 </i>
   </energy>
  </scstep>
  <scstep>
   <time name="dav">   23.26   23.26</time>
   <time name="total">   24.10   24.10</time>
   <energy>
    <i name="e_fr_energy">   -114.00532616 </i>
    <i name="e_wo_entrp">   -113.88356539 </i>
    <i name="e_0_energy">   -113.94444578 </i>
   </energy>
  </scstep>
  <scstep>
   <time name="dav">   17.97   17.97</time>
   <time name="total">   18.09   18.09</time>
   <energy>
    <i name="alphaZ">    325.71046388 </i>
    <i name="ewald"> -10945.86903161 </i>
    <i name="hartreedc">  -1853.29871189 </i>
    <i name="XCdc">  -1761.26051335 </i>
    <i name="pawpsdc">  15133.05569406 </i>
    <i name="pawaedc"> -12858.29948802 </i>
    <i name="eentropy">     -0.12176629 </i>
    <i name="bandstr">  -1271.91042907 </i>
    <i name="atom">  13117.98845597 </i>
    <i name="e_fr_energy">   -114.00532632 </i>
    <i name="e_wo_entrp">   -113.88356002 </i>
    <i name="e_0_energy">   -113.94444317 </i>
   </energy>
  </scstep>
  <structure>
   <crystal>
    <varray name="basis" >
     <v>      12.57433319       0.00000000       0.00000000 </v>
     <v>       0.00000000      12.57433319       0.00000000 </v>
     <v>       0.00000000       0.00000000      12.57433319 </v>
    </varray>
    <i name="volume">   1988.17629733 </i>
    <varray name="rec_basis" >
     <v>       0.07952708       0.00000000       0.00000000 </v>
     <v>       0.00000000       0.07952708       0.00000000 </v>
     <v>       0.00000000       0.00000000       0.07952708 </v>
    </varray>
   </crystal>
   <varray name="positions" >
    <v>       0.01386106       0.00782178       0.00568773 </v>
    <v>       0.00735689       0.01202311       0.50052504 </v>
    <v>       0.01305809       0.49271504       0.01042792 </v>
    <v>       0.00830326       0.51080866       0.50849644 </v>
    <v>       0.51350816       0.99497736       0.00538624 </v>
    <v>       0.50732645       0.00235012       0.49047803 </v>
    <v>       0.51997037       0.49655661       0.01328841 </v>
    <v>       0.50426662       0.56026450       0.50336165 </v>
    <v>       0.26913217       0.23676557       0.22467284 </v>
    <v>       0.26724108       0.25173766       0.71663934 </v>
    <v>       0.22561544       0.72032779       0.24315440 </v>
    <v>       0.21787866       0.74490252       0.78342425 </v>
    <v>       0.75853876       0.28799156       0.29973720 </v>
    <v>       0.75106784       0.24832995       0.75138258 </v>
    <v>       0.77602946       0.79206683       0.26887285 </v>
    <v>       0.78554142       0.76347121       0.77547519 </v>
    <v>       0.96531209       0.05293898       0.25236845 </v>
    <v>       0.04196900       0.98514800       0.75298383 </v>
    <v>       0.03549423       0.45778897       0.26045579 </v>
    <v>       0.99004620       0.53155971       0.76009453 </v>
    <v>       0.56041556       0.05780468       0.24754442 </v>
    <v>       0.45935691       0.00927374       0.75188308 </v>
    <v>       0.49014953       0.45324603       0.26158843 </v>
    <v>       0.53639890       0.46971507       0.75836815 </v>
    <v>       0.26345968       0.95727523       0.05007204 </v>
    <v>       0.25570693       0.03136118       0.45656827 </v>
    <v>       0.26760868       0.53533289       0.99732039 </v>
    <v>       0.25836437       0.50565308       0.53240323 </v>
    <v>       0.76414820       0.02776897       0.96012851 </v>
    <v>       0.75598370       0.97625641       0.54369359 </v>
    <v>       0.76820855       0.43456353       0.02089926 </v>
    <v>       0.75667746       0.54630596       0.49237481 </v>
    <v>       0.07263535       0.25071153       0.96650417 </v>
    <v>       0.98403016       0.26032259       0.54701508 </v>
    <v>       0.97998408       0.75030307       0.03486109 </v>
    <v>       0.02577576       0.76093522       0.47233337 </v>
    <v>       0.46700908       0.24335459       0.97360798 </v>
    <v>       0.52613256       0.24856325       0.52323587 </v>
    <v>       0.57606113       0.74439331       0.02254763 </v>
    <v>       0.49160466       0.76518905       0.36489745 </v>
    <v>       0.49558510       0.73992655       0.68224048 </v>
   </varray>
  </structure>
  <varray name="forces" >
   <v>      -0.00812699       0.00095563       0.00656094 </v>
   <v>       0.00270422      -0.00200703      -0.00297771 </v>
   <v>      -0.00353521      -0.00423477       0.00212067 </v>
   <v>      -0.00854038       0.00160537      -0.00659829 </v>
   <v>      -0.00208392      -0.00256019       0.01605017 </v>
   <v>       0.00619979       0.02294223       0.00628866 </v>
   <v>      -0.00645112       0.00457215       0.03369514 </v>
   <v>       0.01100182      -0.03119450      -0.06927125 </v>
   <v>       0.00676121       0.00298998       0.00334143 </v>
   <v>       0.00939210       0.02402963       0.00032145 </v>
   <v>      -0.00753648      -0.02964159       0.00100139 </v>
   <v>       0.00118876       0.00000091      -0.02398451 </v>
   <v>      -0.01320455       0.01620511      -0.00143944 </v>
   <v>      -0.00905857       0.01004795       0.00523780 </v>
   <v>      -0.00032249      -0.00101221      -0.00157845 </v>
   <v>      -0.00681519       0.01563306       0.00454447 </v>
   <v>      -0.00207316       0.00727631      -0.00064508 </v>
   <v>      -0.01797934      -0.00106902       0.00066071 </v>
   <v>       0.00820808      -0.01039441      -0.00436288 </v>
   <v>      -0.01476288       0.00901868       0.00056426 </v>
   <v>      -0.00775855      -0.00082384       0.00292139 </v>
   <v>       0.01761097      -0.02886186      -0.01098982 </v>
   <v>       0.00783772       0.00494035      -0.00320156 </v>
   <v>      -0.07098746       0.07251605      -0.03439985 </v>
   <v>      -0.00220138      -0.00245134       0.00338256 </v>
   <v>      -0.00111477      -0.00138884       0.00684693 </v>
   <v>      -0.00944909       0.01274213      -0.01565853 </v>
   <v>      -0.00424508       0.00888466       0.01517901 </v>
   <v>      -0.00934541      -0.01383184       0.00168971 </v>
   <v>      -0.00246526      -0.00794020      -0.00375920 </v>
   <v>      -0.00646293      -0.03657578       0.03161312 </v>
   <v>       0.00192421       0.01194159      -0.03830216 </v>
   <v>      -0.00414379      -0.00275986      -0.00489619 </v>
   <v>      -0.00537004       0.00468818      -0.01165552 </v>
   <v>      -0.00615793      -0.00807501       0.00304379 </v>
   <v>       0.00611103       0.00773591       0.00488064 </v>
   <v>       0.00791182       0.00874311      -0.02932417 </v>
   <v>       0.02262991       0.00556281       0.01470055 </v>
   <v>       0.00484955       0.00226000      -0.00808638 </v>
   <v>       0.00640489       0.01361053       0.02371850 </v>
   <v>       0.10945589      -0.08408005       0.08276768 </v>
  </varray>
  <varray name="stress" >
   <v>      -3.19468784      -0.29663335      -0.10172777 </v>
   <v>      -0.29663330      -4.66217686      -0.66817957 </v>
   <v>      -0.10172727      -0.66817906      -3.84278705 </v>
  </varray>
  <energy>
   <i name="e_fr_energy">   -124.34789882 </i>
   <i name="e_wo_entrp">   -124.22613252 </i>
   <i name="e_0_energy">   -124.28701567 </i>
  </energy>
  <time name="totalsc">  180.38  180.54</time>
 </calculation>
 <calculation>
  <scstep>
   <time name="dav">   21.92   21.92</time>
   <time name="total">   22.74   22.74</time>
   <energy>
    <i name="alphaZ">    325.71046388 </i>
    <i name="ewald"> -10945.36362617 </i>
    <i name="hartreedc">  -1853.79029977 </i>
    <i name="XCdc">  -1761.25405904 </i>
    <i name="pawpsdc">  15133.07242281 </i>
    <i name="pawaedc"> -12858.31624844 </i>
    <i name="eentropy">     -0.11825915 </i>
    <i name="bandstr">  -1271.93617697 </i>
    <i name="atom">  13117.98845597 </i>
    <i name="e_fr_energy">   -114.00732687 </i>
    <i name="e_wo_entrp">   -113.88906772 </i>
    <i name="e_0_energy">   -113.94819729 </i>
   </energy>
  </scstep>
  <scstep>
   <time name="dav">   22.43   22.43</time>
   <time name="total">   23.29   23.29</time>
   <energy>
    <i name="e_fr_energy">   -114.01614421 </i>
    <i name="e_wo_entrp">   -113.89740087 </i>
    <i name="e_0_energy">   -113.95677254 </i>
   </energy>
  </scstep>
  <scstep>
   <time name="dav">   23.19   23.19</time>
   <time name="total">   24.04   24.04</time>
   <energy>
    <i name="e_fr_energy">   -114.01606083 </i>
    <i name="e_wo_entrp">   -113.89726991 </i>
    <i name="e_0_energy">   -113.95666537 </i>
   </energy>
  </scstep>
  <scstep>
   <time name="dav">   23.60   23.60</time>
   <time name="total">   24.46   24.46</time>
   <energy>
    <i name="e_fr_energy">   -114.01599617 </i>
    <i name="e_wo_entrp">   -113.89722140 </i>
    <i name="e_0_energy">   -113.95660878 </i>
   </energy>
  </scstep>
  <scstep>
   <time name="dav">   22.38   22.38</time>
   <time name="total">   23.22   23.22</time>
   <energy>
    <i name="e_fr_energy">   -114.01592610 </i>
    <i name="e_wo_entrp">   -113.89712707 </i>
    <i name="e_0_energy">   -113.95652659 </i>
   </energy>
  </scstep>
  <scstep>
   <time name="dav">   23.17   23.17</time>
   <time name="total">   24.01   24.01</time>
   <energy>
    <i name="e_fr_energy">   -114.01592758 </i>
    <i name="e_wo_entrp">   -113.89711849 </i>
    <i name="e_0_energy">   -113.95652303 </i>
   </energy>
  </scstep>
  <scstep>
   <time name="dav">   22.21   22.21</time>
   <time name="total">   22.97   22.97</time>
   <energy>
    <i name="e_fr_energy">   -114.01592751 </i>
    <i name="e_wo_entrp">   -113.89710983 </i>
    <i name="e_0_energy">   -113.95651867 </i>
   </energy>
  </scstep>
  <scstep>
   <time name="dav">   17.22   17.22</time>
   <time name="total">   17.33   17.34</time>
   <energy>
    <i name="alphaZ">    325.71046388 </i>
    <i name="ewald"> -10945.36362617 </i>
    <i name="hartreedc">  -1853.80528874 </i>
    <i name="XCdc">  -1761.25550904 </i>
    <i name="pawpsdc">  15135.75774405 </i>
    <i name="pawaedc"> -12860.99997262 </i>
    <i name="eentropy">     -0.11882216 </i>
    <i name="bandstr">  -1271.92937277 </i>
    <i name="atom">  13117.98845597 </i>
    <i name="e_fr_energy">   -114.01592760 </i>
    <i name="e_wo_entrp">   -113.89710543 </i>
    <i name="e_0_energy">   -113.95651652 </i>
   </energy>
  </scstep>
  <structure>
   <crystal>
    <varray name="basis" >
     <v>      12.57433319       0.00000000       0.00000000 </v>
     <v>       0.00000000      12.57433319       0.00000000 </v>
     <v>       0.00000000       0.00000000      12.57433319 </v>
    </varray>
    <i name="volume">   1988.17629733 </i>
    <varray name="rec_basis" >
     <v>       0.07952708       0.00000000       0.00000000 </v>
     <v>       0.00000000       0.07952708       0.00000000 </v>
     <v>       0.00000000       0.00000000       0.07952708 </v>
    </varray>
   </crystal>
   <varray name="positions" >
    <v>       0.01366118       0.00781419       0.00581002 </v>
    <v>       0.00739319       0.01209894       0.50036102 </v>
    <v>       0.01302734       0.49266273       0.01040457 </v>
    <v>       0.00823530       0.51086851       0.50834058 </v>
    <v>       0.51337157       0.99481665       0.00556922 </v>
    <v>       0.50734054       0.00282198       0.49053727 </v>
    <v>       0.51992736       0.49667020       0.01384379 </v>
    <v>       0.50449267       0.55976024       0.50238453 </v>
    <v>       0.26925013       0.23696154       0.22464945 </v>
    <v>       0.26734050       0.25210314       0.71669213 </v>
    <v>       0.22579253       0.71974842       0.24306475 </v>
    <v>       0.21792918       0.74499060       0.78296405 </v>
    <v>       0.75831728       0.28818539       0.30004577 </v>
    <v>       0.75127441       0.24848766       0.75153907 </v>
    <v>       0.77593756       0.79197033       0.26884012 </v>
    <v>       0.78547389       0.76372164       0.77535227 </v>
    <v>       0.96516190       0.05300794       0.25230324 </v>
    <v>       0.04157274       0.98524479       0.75295159 </v>
    <v>       0.03562591       0.45784221       0.26032384 </v>
    <v>       0.99000698       0.53177568       0.75999837 </v>
    <v>       0.56014757       0.05779115       0.24755986 </v>
    <v>       0.45970781       0.00856098       0.75166063 </v>
    <v>       0.49043675       0.45332239       0.26157476 </v>
    <v>       0.53547280       0.47032333       0.75793303 </v>
    <v>       0.26332465       0.95730395       0.05012398 </v>
    <v>       0.25566607       0.03168023       0.45668794 </v>
    <v>       0.26753281       0.53545779       0.99691554 </v>
    <v>       0.25839263       0.50558453       0.53251377 </v>
    <v>       0.76398394       0.02743977       0.96008567 </v>
    <v>       0.75595522       0.97616156       0.54352120 </v>
    <v>       0.76813316       0.43385709       0.02150609 </v>
    <v>       0.75672287       0.54651302       0.49198867 </v>
    <v>       0.07253089       0.25061793       0.96646493 </v>
    <v>       0.98396195       0.26044769       0.54668731 </v>
    <v>       0.97990596       0.75019386       0.03478718 </v>
    <v>       0.02607101       0.76115381       0.47232354 </v>
    <v>       0.46709015       0.24332125       0.97316006 </v>
    <v>       0.52660633       0.24861567       0.52347436 </v>
    <v>       0.57597696       0.74435896       0.02258437 </v>
    <v>       0.49155439       0.76540308       0.36572233 </v>
    <v>       0.49730693       0.73818484       0.68374913 </v>
   </varray>
  </structure>
  <varray name="forces" >
   <v>      -0.00751623      -0.00235801      -0.00215356 </v>
   <v>      -0.00037413      -0.00475900       0.00160680 </v>
   <v>      -0.00986190      -0.00495761      -0.00066761 </v>
   <v>      -0.00143205       0.00443732       0.00039098 </v>
   <v>       0.00042295       0.01074982       0.00671546 </v>
   <v>       0.00554174       0.02134474       0.01429549 </v>
   <v>       0.00058844      -0.00496562       0.01682981 </v>
   <v>       0.00076478      -0.03221915      -0.05271029 </v>
   <v>       0.00550555       0.00008930       0.00207364 </v>
   <v>       0.01061688       0.01802691       0.00483507 </v>
   <v>      -0.00791841      -0.02010481       0.00309717 </v>
   <v>       0.00751933       0.00586703      -0.03220006 </v>
   <v>      -0.00805805       0.00612770       0.00352737 </v>
   <v>      -0.00777519       0.00881962       0.00732785 </v>
   <v>       0.00241773       0.00289118      -0.00093264 </v>
   <v>       0.00976022       0.01841853       0.00933902 </v>
   <v>       0.00003144       0.00560396       0.00193560 </v>
   <v>      -0.00534866      -0.00493618       0.00372392 </v>
   <v>       0.00817816      -0.00954678      -0.00612672 </v>
   <v>      -0.01908739       0.00665361       0.00051719 </v>
   <v>      -0.00418530       0.00383104       0.00403749 </v>
   <v>       0.00849607      -0.04273987      -0.00868463 </v>
   <v>       0.00583868       0.00020837      -0.00462090 </v>
   <v>      -0.05652397       0.05295470      -0.01191706 </v>
   <v>       0.00168227      -0.00328757       0.00270896 </v>
   <v>       0.00263418      -0.00404595       0.00140841 </v>
   <v>      -0.00899471       0.00776846      -0.00938994 </v>
   <v>      -0.00607639       0.01029712       0.01099859 </v>
   <v>      -0.01145967      -0.00504853       0.00096509 </v>
   <v>      -0.00339349      -0.00776659      -0.00566700 </v>
   <v>      -0.01138245      -0.03068532       0.01418198 </v>
   <v>       0.00256874       0.01653908      -0.03979936 </v>
   <v>      -0.00266696      -0.00044893      -0.00468407 </v>
   <v>      -0.00335781       0.00320150      -0.00148836 </v>
   <v>      -0.00274797      -0.00373111       0.00774480 </v>
   <v>       0.00349942       0.00029959       0.00114236 </v>
   <v>       0.00533792       0.02226242      -0.03056906 </v>
   <v>       0.01687477       0.01189331       0.01223089 </v>
   <v>       0.00167913      -0.00167998       0.00038891 </v>
   <v>       0.00247450       0.01646257       0.01817511 </v>
   <v>       0.07572783      -0.07146683       0.06141331 </v>
  </varray>
  <varray name="stress" >
   <v>      -3.15855470      -0.29724306      -0.07783145 </v>
   <v>      -0.29724180      -4.60998176      -0.65596615 </v>
   <v>      -0.07783240      -0.65596684      -3.79568502 </v>
  </varray>
  <energy>
   <i name="e_fr_energy">   -124.35838042 </i>
   <i name="e_wo_entrp">   -124.23955826 </i>
   <i name="e_0_energy">   -124.29896934 </i>
  </energy>
  <time name="totalsc">  209.93  209.95</time>
 </calculation>
 <calculation>
  <scstep>
   <time name="dav">   21.38   21.39</time>
   <time name="total">   22.20   22.20</time>
   <energy>
    <i name="alphaZ">    325.71046388 </i>
    <i name="ewald"> -10945.33244533 </i>
    <i name="hartreedc">  -1853.84071453 </i>
    <i name="XCdc">  -1761.25592609 </i>
    <i name="pawpsdc">  15135.80767372 </i>
    <i name="pawaedc"> -12861.04987798 </i>
    <i name="eentropy">     -0.11851729 </i>
    <i name="bandstr">  -1271.92510775 </i>
    <i name="atom">  13117.98845597 </i>
    <i name="e_fr_energy">   -114.01599539 </i>
    <i name="e_wo_entrp">   -113.89747811 </i>
    <i name="e_0_energy">   -113.95673675 </i>
   </energy>
  </scstep>
  <scstep>
   <time name="dav">   22.47   22.47</time>
   <time name="total">   23.33   23.33</time>
   <energy>
    <i name="e_fr_energy">   -114.01696195 </i>
    <i name="e_wo_entrp">   -113.89835294 </i>
    <i name="e_0_energy">   -113.95765744 </i>
   </energy>
  </scstep>
  <scstep>
   <time name="dav">   23.81   23.81</time>
   <time name="total">   24.68   24.68</time>
   <energy>
    <i name="e_fr_energy">   -114.01695078 </i>
    <i name="e_wo_entrp">   -113.89833749 </i>
    <i name="e_0_energy">   -113.95764414 </i>
   </energy>
  </scstep>
  <scstep>
   <time name="dav">   22.94   22.95</time>
   <time name="total">   23.81   23.81</time>
   <energy>
    <i name="e_fr_energy">   -114.01694416 </i>
    <i name="e_wo_entrp">   -113.89833627 </i>
    <i name="e_0_energy">   -113.95764021 </i>
   </energy>
  </scstep>
  <scstep>
   <time name="dav">   23.12   23.12</time>
   <time name="total">   23.98   23.98</time>
   <energy>
    <i name="e_fr_energy">   -114.01693712 </i>
    <i name="e_wo_entrp">   -113.89832906 </i>
    <i name="e_0_energy">   -113.95763309 </i>
   </energy>
  </scstep>
  <scstep>
   <time name="dav">   21.50   21.51</time>
   <time name="total">   21.63   21.63</time>
   <energy>
    <i name="alphaZ">    325.71046388 </i>
    <i name="ewald"> -10945.33244533 </i>
    <i name="hartreedc">  -1853.84458284 </i>
    <i name="XCdc">  -1761.25543873 </i>
    <i name="pawpsdc">  15135.78710318 </i>
    <i name="pawaedc"> -12861.02874885 </i>
    <i name="eentropy">     -0.11861047 </i>
    <i name="bandstr">  -1271.92313444 </i>
    <i name="atom">  13117.98845597 </i>
    <i name="e_fr_energy">   -114.01693762 </i>
    <i name="e_wo_entrp">   -113.89832715 </i>
    <i name="e_0_energy">   -113.95763239 </i>
   </energy>
  </scstep>
  <structure>
   <crystal>
    <varray name="basis" >
     <v>      12.57433319       0.00000000       0.00000000 </v>
     <v>       0.00000000      12.57433319       0.00000000 </v>
     <v>       0.00000000       0.00000000      12.57433319 </v>
    </varray>
    <i name="volume">   1988.17629733 </i>
    <varray name="rec_basis" >
     <v>       0.07952708       0.00000000       0.00000000 </v>
     <v>       0.00000000       0.07952708       0.00000000 </v>
     <v>       0.00000000       0.00000000       0.07952708 </v>
    </varray>
   </crystal>
   <varray name="positions" >
    <v>       0.01372135       0.00784500       0.00583069 </v>
    <v>       0.00739404       0.01206489       0.50044937 </v>
    <v>       0.01299705       0.49266500       0.01045550 </v>
    <v>       0.00815198       0.51081323       0.50838430 </v>
    <v>       0.51342880       0.99491418       0.00562387 </v>
    <v>       0.50739074       0.00280236       0.49060296 </v>
    <v>       0.51985320       0.49670724       0.01385237 </v>
    <v>       0.50447585       0.55975427       0.50218097 </v>
    <v>       0.26924630       0.23685185       0.22470155 </v>
    <v>       0.26735690       0.25211756       0.71664244 </v>
    <v>       0.22555931       0.71983935       0.24322106 </v>
    <v>       0.21799253       0.74488625       0.78295693 </v>
    <v>       0.75831150       0.28822650       0.29977294 </v>
    <v>       0.75093591       0.24852272       0.75147642 </v>
    <v>       0.77598296       0.79205971       0.26884122 </v>
    <v>       0.78547259       0.76378011       0.77556692 </v>
    <v>       0.96528261       0.05304739       0.25236714 </v>
    <v>       0.04168572       0.98512820       0.75301461 </v>
    <v>       0.03563784       0.45767203       0.26036329 </v>
    <v>       0.98988496       0.53176910       0.76005505 </v>
    <v>       0.56021836       0.05778516       0.24760743 </v>
    <v>       0.45969661       0.00866173       0.75169460 </v>
    <v>       0.49036999       0.45328714       0.26152880 </v>
    <v>       0.53509266       0.47078179       0.75783827 </v>
    <v>       0.26340133       0.95726755       0.05014195 </v>
    <v>       0.25569120       0.03143728       0.45668331 </v>
    <v>       0.26746070       0.53557964       0.99708893 </v>
    <v>       0.25831788       0.50574455       0.53257265 </v>
    <v>       0.76403555       0.02756830       0.96015540 </v>
    <v>       0.75595695       0.97613462       0.54364147 </v>
    <v>       0.76806187       0.43394600       0.02137870 </v>
    <v>       0.75667532       0.54647116       0.49167081 </v>
    <v>       0.07255191       0.25063413       0.96643604 </v>
    <v>       0.98391906       0.26040732       0.54680398 </v>
    <v>       0.97990462       0.75020485       0.03491081 </v>
    <v>       0.02586767       0.76110907       0.47241136 </v>
    <v>       0.46712010       0.24347927       0.97309060 </v>
    <v>       0.52654200       0.24862736       0.52346315 </v>
    <v>       0.57607907       0.74442317       0.02242295 </v>
    <v>       0.49163271       0.76542527       0.36549726 </v>
    <v>       0.49756396       0.73823034       0.68360194 </v>
   </varray>
  </structure>
  <varray name="forces" >
   <v>      -0.00569579      -0.00183635      -0.00103124 </v>
   <v>      -0.00025724      -0.00241975       0.00340520 </v>
   <v>      -0.00842242      -0.00306079      -0.00258181 </v>
   <v>       0.00115469       0.00215116      -0.00340808 </v>
   <v>      -0.00339929       0.00496620       0.00563344 </v>
   <v>       0.00523298       0.01908550       0.01360605 </v>
   <v>       0.00040704      -0.00403226       0.01731311 </v>
   <v>       0.00237947      -0.02969879      -0.04805331 </v>
   <v>       0.00523801       0.00023898       0.00238907 </v>
   <v>       0.00891159       0.01639866       0.00361751 </v>
   <v>      -0.00552253      -0.01892228       0.00258261 </v>
   <v>       0.01082404       0.00370644      -0.03404646 </v>
   <v>      -0.00531756       0.00613141       0.00043800 </v>
   <v>      -0.01012282       0.00976944       0.00759189 </v>
   <v>       0.00056313       0.00122279      -0.00118762 </v>
   <v>       0.01317473       0.01631033       0.00858478 </v>
   <v>      -0.00310121       0.00501003       0.00077069 </v>
   <v>      -0.00984763      -0.00071921       0.00137546 </v>
   <v>       0.00893402      -0.00975339      -0.00406002 </v>
   <v>      -0.01714865       0.00722827      -0.00382976 </v>
   <v>      -0.00570870       0.00576841       0.00246070 </v>
   <v>       0.00916907      -0.04527725      -0.00829159 </v>
   <v>       0.00677889       0.00017874      -0.00334197 </v>
   <v>      -0.06029357       0.05367436      -0.00689723 </v>
   <v>      -0.00093761      -0.00573677       0.00461239 </v>
   <v>       0.00170691       0.00225850       0.00244202 </v>
   <v>      -0.00736523       0.00945141      -0.00759726 </v>
   <v>      -0.00504372       0.01421981       0.01412785 </v>
   <v>      -0.00687347      -0.00500778       0.00036158 </v>
   <v>      -0.00154919      -0.00884798      -0.00541128 </v>
   <v>      -0.00987133      -0.03363644       0.01777397 </v>
   <v>      -0.00135676       0.01023052      -0.04017457 </v>
   <v>      -0.00373025      -0.00113797      -0.00332147 </v>
   <v>      -0.00210439       0.00500754      -0.00308258 </v>
   <v>      -0.00329828      -0.00434804       0.00329645 </v>
   <v>       0.00329355       0.00214795       0.00140430 </v>
   <v>       0.00316006       0.01846879      -0.03036389 </v>
   <v>       0.01830353       0.01187369       0.01204679 </v>
   <v>       0.00363277       0.00277717       0.00067625 </v>
   <v>       0.00156689       0.01600883       0.01814900 </v>
   <v>       0.07253625      -0.06984990       0.06202101 </v>
  </varray>
  <varray name="stress" >
   <v>      -3.18930535      -0.29674458      -0.07313696 </v>
   <v>      -0.29674467      -4.62607524      -0.65397990 </v>
   <v>      -0.07313683      -0.65398025      -3.79521406 </v>
  </varray>
  <energy>
   <i name="e_fr_energy">   -124.35937626 </i>
   <i name="e_wo_entrp">   -124.24076579 </i>
   <i name="e_0_energy">   -124.30007102 </i>
  </energy>
  <time name="totalsc">  201.74  202.22</time>
 </calculation>
 <calculation>
  <scstep>
   <time name="dav">   20.99   20.99</time>
   <time name="total">   21.81   21.81</time>
   <energy>
    <i name="alphaZ">    325.71046388 </i>
    <i name="ewald"> -10945.22894468 </i>
    <i name="hartreedc">  -1853.95383793 </i>
    <i name="XCdc">  -1761.25646933 </i>
    <i name="pawpsdc">  15135.77822303 </i>
    <i name="pawaedc"> -12861.01985333 </i>
    <i name="eentropy">     -0.11796709 </i>
    <i name="bandstr">  -1271.91246767 </i>
    <i name="atom">  13117.98845597 </i>
    <i name="e_fr_energy">   -114.01239716 </i>
    <i name="e_wo_entrp">   -113.89443007 </i>
    <i name="e_0_energy">   -113.95341361 </i>
   </energy>
  </scstep>
  <scstep>
   <time name="dav">   22.07   22.07</time>
   <time name="total">   22.91   22.91</time>
   <energy>
    <i name="e_fr_energy">   -114.01899583 </i>
    <i name="e_wo_entrp">   -113.90080085 </i>
    <i name="e_0_energy">   -113.95989834 </i>
   </energy>
  </scstep>
  <scstep>
   <time name="dav">   23.72   23.73</time>
   <time name="total">   24.57   24.57</time>
   <energy>
    <i name="e_fr_energy">   -114.01892343 </i>
    <i name="e_wo_entrp">   -113.90072089 </i>
    <i name="e_0_energy">   -113.95982216 </i>
   </energy>
  </scstep>
  <scstep>
   <time name="dav">   23.11   23.11</time>
   <time name="total">   23.95   23.95</time>
   <energy>
    <i name="e_fr_energy">   -114.01887663 </i>
    <i name="e_wo_entrp">   -113.90069033 </i>
    <i name="e_0_energy">   -113.95978348 </i>
   </energy>
  </scstep>
  <scstep>
   <time name="dav">   23.05   23.05</time>
   <time name="total">   23.89   23.89</time>
   <energy>
    <i name="e_fr_energy">   -114.01883350 </i>
    <i name="e_wo_entrp">   -113.90064841 </i>
    <i name="e_0_energy">   -113.95974095 </i>
   </energy>
  </scstep>
  <scstep>
   <time name="dav">   23.29   23.30</time>
   <time name="total">   24.13   24.13</time>
   <energy>
    <i name="e_fr_energy">   -114.01883634 </i>
    <i name="e_wo_entrp">   -113.90064585 </i>
    <i name="e_0_energy">   -113.95974110 </i>
   </energy>
  </scstep>
  <scstep>
   <time name="dav">   15.25   15.25</time>
   <time name="total">   15.37   15.37</time>
   <energy>
    <i name="alphaZ">    325.71046388 </i>
    <i name="ewald"> -10945.22894468 </i>
    <i name="hartreedc">  -1853.96518982 </i>
    <i name="XCdc">  -1761.25493619 </i>
    <i name="pawpsdc">  15135.81643166 </i>
    <i name="pawaedc"> -12861.05691342 </i>
    <i name="eentropy">     -0.11819606 </i>
    <i name="bandstr">  -1271.91000805 </i>
    <i name="atom">  13117.98845597 </i>
    <i name="e_fr_energy">   -114.01883670 </i>
    <i name="e_wo_entrp">   -113.90064064 </i>
    <i name="e_0_energy">   -113.95973867 </i>
   </energy>
  </scstep>
  <structure>
   <crystal>
    <varray name="basis" >
     <v>      12.57433319       0.00000000       0.00000000 </v>
     <v>       0.00000000      12.57433319       0.00000000 </v>
     <v>       0.00000000       0.00000000      12.57433319 </v>
    </varray>
    <i name="volume">   1988.17629733 </i>
    <varray name="rec_basis" >
     <v>       0.07952708       0.00000000       0.00000000 </v>
     <v>       0.00000000       0.07952708       0.00000000 </v>
     <v>       0.00000000       0.00000000       0.07952708 </v>
    </varray>
   </crystal>
   <varray name="positions" >
    <v>       0.01389302       0.00793348       0.00589229 </v>
    <v>       0.00739244       0.01199013       0.50068895 </v>
    <v>       0.01292647       0.49268843       0.01057650 </v>
    <v>       0.00793110       0.51066351       0.50847800 </v>
    <v>       0.51356052       0.99515262       0.00574340 </v>
    <v>       0.50750979       0.00273567       0.49077578 </v>
    <v>       0.51965344       0.49684222       0.01384616 </v>
    <v>       0.50444423       0.55975734       0.50171188 </v>
    <v>       0.26922006       0.23656629       0.22482792 </v>
    <v>       0.26737522       0.25210959       0.71650020 </v>
    <v>       0.22498183       0.72011003       0.24364214 </v>
    <v>       0.21821510       0.74459140       0.78292817 </v>
    <v>       0.75830701       0.28830818       0.29902432 </v>
    <v>       0.75005534       0.24862010       0.75131970 </v>
    <v>       0.77607242       0.79231232       0.26883779 </v>
    <v>       0.78550099       0.76395713       0.77615613 </v>
    <v>       0.96560103       0.05314904       0.25253669 </v>
    <v>       0.04197969       0.98483271       0.75317530 </v>
    <v>       0.03565865       0.45723695       0.26046149 </v>
    <v>       0.98960952       0.53178636       0.76017896 </v>
    <v>       0.56037855       0.05777469       0.24773025 </v>
    <v>       0.45966173       0.00891428       0.75178682 </v>
    <v>       0.49017768       0.45316330       0.26140963 </v>
    <v>       0.53408265       0.47187680       0.75765361 </v>
    <v>       0.26359249       0.95718826       0.05018803 </v>
    <v>       0.25574977       0.03084079       0.45668288 </v>
    <v>       0.26727842       0.53591486       0.99756031 </v>
    <v>       0.25813114       0.50614894       0.53269138 </v>
    <v>       0.76418855       0.02793729       0.96036649 </v>
    <v>       0.75596390       0.97608170       0.54396766 </v>
    <v>       0.76788257       0.43421819       0.02102604 </v>
    <v>       0.75654651       0.54631297       0.49079652 </v>
    <v>       0.07261112       0.25068081       0.96636907 </v>
    <v>       0.98379891       0.26030444       0.54712882 </v>
    <v>       0.97991075       0.75024448       0.03523687 </v>
    <v>       0.02532181       0.76099773       0.47263020 </v>
    <v>       0.46718517       0.24384577       0.97292211 </v>
    <v>       0.52635409       0.24865378       0.52343755 </v>
    <v>       0.57632942       0.74462007       0.02199992 </v>
    <v>       0.49181256       0.76547171       0.36496471 </v>
    <v>       0.49825098       0.73832137       0.68314936 </v>
   </varray>
  </structure>
  <varray name="forces" >
   <v>      -0.00262042      -0.00187602       0.00137159 </v>
   <v>       0.00002856       0.00172091      -0.00144411 </v>
   <v>      -0.00719116      -0.00181325       0.00137771 </v>
   <v>       0.00160378      -0.00056740      -0.00449775 </v>
   <v>      -0.00668035      -0.00024931       0.00458394 </v>
   <v>       0.00374360       0.01905039       0.01447906 </v>
   <v>       0.00064878       0.00080033       0.01990448 </v>
   <v>       0.00254704      -0.03123185      -0.05614445 </v>
   <v>       0.00540983      -0.00049420      -0.00335770 </v>
   <v>       0.00897743       0.01665436       0.00299853 </v>
   <v>       0.00213191      -0.02488698       0.00320399 </v>
   <v>       0.01674541       0.00162069      -0.03318827 </v>
   <v>      -0.00733183       0.00604242       0.00936182 </v>
   <v>      -0.01399723       0.01337137       0.00690874 </v>
   <v>      -0.00347630       0.00281736      -0.00225521 </v>
   <v>       0.01390402       0.01686627       0.00739315 </v>
   <v>      -0.00819339       0.00642012       0.00068085 </v>
   <v>      -0.01414637      -0.00587288       0.00275782 </v>
   <v>       0.01196225      -0.00756502      -0.00825879 </v>
   <v>      -0.02474462       0.01042601      -0.00003574 </v>
   <v>      -0.00903070       0.00525691      -0.00003896 </v>
   <v>       0.01915331      -0.04673943      -0.01232452 </v>
   <v>      -0.00036064      -0.00244212      -0.00502472 </v>
   <v>      -0.04482972       0.03142605       0.00004608 </v>
   <v>      -0.00458630      -0.00344503       0.00576258 </v>
   <v>      -0.00034018       0.01410521       0.00034150 </v>
   <v>      -0.00439507       0.00577538      -0.00919869 </v>
   <v>      -0.00437280       0.01812117       0.01001975 </v>
   <v>      -0.00711578      -0.01321430       0.00544748 </v>
   <v>       0.00643655      -0.00506010      -0.00551830 </v>
   <v>      -0.01255525      -0.03011208       0.02141945 </v>
   <v>       0.01141700       0.01404671      -0.03656828 </v>
   <v>      -0.00535761       0.00122186      -0.00315498 </v>
   <v>      -0.00689659       0.00758631      -0.00997586 </v>
   <v>      -0.00225273      -0.00515769      -0.00445083 </v>
   <v>       0.00483100       0.00190162       0.00711636 </v>
   <v>       0.00323616       0.01349775      -0.02780468 </v>
   <v>       0.01703197       0.01632407       0.01099463 </v>
   <v>       0.00142504       0.00461446       0.00033912 </v>
   <v>      -0.00239606       0.01693592       0.02511934 </v>
   <v>       0.06163746      -0.06587599       0.06161389 </v>
  </varray>
  <varray name="stress" >
   <v>      -3.22183461      -0.28929139      -0.07287432 </v>
   <v>      -0.28929229      -4.61738311      -0.65109642 </v>
   <v>      -0.07287344      -0.65109666      -3.80566364 </v>
  </varray>
  <energy>
   <i name="e_fr_energy">   -124.36124348 </i>
   <i name="e_wo_entrp">   -124.24304742 </i>
   <i name="e_0_energy">   -124.30214545 </i>
  </energy>
  <time name="totalsc">  192.78  193.02</time>
 </calculation>
 <calculation>
  <scstep>
   <time name="dav">   20.97   20.97</time>
   <time name="total">   21.80   21.80</time>
   <energy>
    <i name="alphaZ">    325.71046388 </i>
    <i name="ewald"> -10944.96290556 </i>
    <i name="hartreedc">  -1854.23230524 </i>
    <i name="XCdc">  -1761.25633943 </i>
    <i name="pawpsdc">  15135.76535116 </i>
    <i name="pawaedc"> -12861.00577326 </i>
    <i name="eentropy">     -0.11724759 </i>
    <i name="bandstr">  -1271.89135324 </i>
    <i name="atom">  13117.98845597 </i>
    <i name="e_fr_energy">   -114.00165328 </i>
    <i name="e_wo_entrp">   -113.88440570 </i>
    <i name="e_0_energy">   -113.94302949 </i>
   </energy>
  </scstep>
  <scstep>
   <time name="dav">   21.94   21.94</time>
   <time name="total">   22.78   22.79</time>
   <energy>
    <i name="e_fr_energy">   -114.02124753 </i>
    <i name="e_wo_entrp">   -113.90364249 </i>
    <i name="e_0_energy">   -113.96244501 </i>
   </energy>
  </scstep>
  <scstep>
   <time name="dav">   23.71   23.71</time>
   <time name="total">   24.55   24.55</time>
   <energy>
    <i name="e_fr_energy">   -114.02103395 </i>
    <i name="e_wo_entrp">   -113.90342418 </i>
    <i name="e_0_energy">   -113.96222906 </i>
   </energy>
  </scstep>
  <scstep>
   <time name="dav">   23.19   23.19</time>
   <time name="total">   24.03   24.03</time>
   <energy>
    <i name="e_fr_energy">   -114.02090023 </i>
    <i name="e_wo_entrp">   -113.90331645 </i>
    <i name="e_0_energy">   -113.96210834 </i>
   </energy>
  </scstep>
  <scstep>
   <time name="dav">   23.06   23.06</time>
   <time name="total">   23.91   23.91</time>
   <energy>
    <i name="e_fr_energy">   -114.02077020 </i>
    <i name="e_wo_entrp">   -113.90319044 </i>
    <i name="e_0_energy">   -113.96198032 </i>
   </energy>
  </scstep>
  <scstep>
   <time name="dav">   23.31   23.31</time>
   <time name="total">   24.16   24.16</time>
   <energy>
    <i name="e_fr_energy">   -114.02077819 </i>
    <i name="e_wo_entrp">   -113.90319087 </i>
    <i name="e_0_energy">   -113.96198453 </i>
   </energy>
  </scstep>
  <scstep>
   <time name="dav">   21.06   21.06</time>
   <time name="total">   21.80   21.80</time>
   <energy>
    <i name="e_fr_energy">   -114.02077948 </i>
    <i name="e_wo_entrp">   -113.90318394 </i>
    <i name="e_0_energy">   -113.96198171 </i>
   </energy>
  </scstep>
  <scstep>
   <time name="dav">   17.58   17.58</time>
   <time name="total">   17.69   17.69</time>
   <energy>
    <i name="alphaZ">    325.71046388 </i>
    <i name="ewald"> -10944.96290556 </i>
    <i name="hartreedc">  -1854.26024037 </i>
    <i name="XCdc">  -1761.25300797 </i>
    <i name="pawpsdc">  15136.01731350 </i>
    <i name="pawaedc"> -12861.25621590 </i>
    <i name="eentropy">     -0.11760210 </i>
    <i name="bandstr">  -1271.88704148 </i>
    <i name="atom">  13117.98845597 </i>
    <i name="e_fr_energy">   -114.02078002 </i>
    <i name="e_wo_entrp">   -113.90317792 </i>
    <i name="e_0_energy">   -113.96197897 </i>
   </energy>
  </scstep>
  <structure>
   <crystal>
    <varray name="basis" >
     <v>      12.57433319       0.00000000       0.00000000 </v>
     <v>       0.00000000      12.57433319       0.00000000 </v>
     <v>       0.00000000       0.00000000      12.57433319 </v>
    </varray>
    <i name="volume">   1988.17629733 </i>
    <varray name="rec_basis" >
[...]
       <r>    0.4584    1.0000 </r>
       <r>    0.4786    1.0000 </r>
       <r>    0.4884    1.0000 </r>
       <r>    0.5008    1.0000 </r>
       <r>    0.5160    1.0000 </r>
       <r>    0.5513    1.0000 </r>
       <r>    0.6084    1.0000 </r>
       <r>    0.6658    1.0000 </r>
       <r>    0.8812    1.0000 </r>
       <r>    1.4703    0.5230 </r>
       <r>    3.8031    0.0000 </r>
       <r>    3.8475    0.0000 </r>
       <r>    3.8960    0.0000 </r>
       <r>    3.9528    0.0000 </r>
       <r>    4.0003    0.0000 </r>
       <r>    4.0608    0.0000 </r>
       <r>    4.0889    0.0000 </r>
       <r>    4.1258    0.0000 </r>
       <r>    4.1742    0.0000 </r>
       <r>    4.2163    0.0000 </r>
       <r>    4.2370    0.0000 </r>
       <r>    4.5659    0.0000 </r>
       <r>    4.8859    0.0000 </r>
       <r>    5.0697    0.0000 </r>
       <r>    5.1558    0.0000 </r>
       <r>    5.2012    0.0000 </r>
       <r>    5.2205    0.0000 </r>
       <r>    5.2561    0.0000 </r>
       <r>    5.3118    0.0000 </r>
       <r>    5.3394    0.0000 </r>
       <r>    5.3913    0.0000 </r>
       <r>    5.4059    0.0000 </r>
       <r>    5.4726    0.0000 </r>
       <r>    5.5368    0.0000 </r>
       <r>    5.8853    0.0000 </r>
       <r>    6.0829    0.0000 </r>
       <r>    6.1135    0.0000 </r>
       <r>    6.1853    0.0000 </r>
       <r>    6.2404    0.0000 </r>
       <r>    6.2716    0.0000 </r>
      </set>
     </set>
    </set>
   </array>
  </eigenvalues>
  <separator name="orbital magnetization" >
   <v name="MAGDIPOLOUT">      0.00000000      0.00000000      0.00000000</v>
  </separator>
  <dos>
   <i name="efermi">      1.47841178 </i>
   <total>
    <array>
     <dimension dim="1">gridpoints</dimension>
     <dimension dim="2">spin</dimension>
     <field>energy</field>
     <field>total</field>
     <field>integrated</field>
     <set>
      <set comment="spin 1">
       <r>   -21.5661     0.0000     0.0000 </r>
       <r>   -21.4663     0.0000     0.0000 </r>
       <r>   -21.3665     0.0000     0.0000 </r>
       <r>   -21.2667     0.0000     0.0000 </r>
       <r>   -21.1669     0.0000     0.0000 </r>
       <r>   -21.0671     0.0000     0.0000 </r>
       <r>   -20.9673     0.0000     0.0000 </r>
       <r>   -20.8675     0.0000     0.0000 </r>
       <r>   -20.7677     0.0000     0.0000 </r>
       <r>   -20.6679     0.0000     0.0000 </r>
       <r>   -20.5680     0.0000     0.0000 </r>
       <r>   -20.4682     0.0000     0.0000 </r>
       <r>   -20.3684     0.0000     0.0000 </r>
       <r>   -20.2686     0.0000     0.0000 </r>
       <r>   -20.1688     0.0003     0.0000 </r>
       <r>   -20.0690     0.0070     0.0007 </r>
       <r>   -19.9692     0.0913     0.0098 </r>
       <r>   -19.8694     0.7619     0.0859 </r>
       <r>   -19.7696     4.0605     0.4911 </r>
       <r>   -19.6698    13.8515     1.8736 </r>
       <r>   -19.5700    30.2599     4.8937 </r>
       <r>   -19.4702    42.2976     9.1153 </r>
       <r>   -19.3704    37.7524    12.8832 </r>
       <r>   -19.2706    21.4532    15.0243 </r>
       <r>   -19.1708     7.7352    15.7964 </r>
       <r>   -19.0710     1.7632    15.9723 </r>
       <r>   -18.9712     0.2531    15.9976 </r>
       <r>   -18.8713     0.0228    15.9999 </r>
       <r>   -18.7715     0.0013    16.0000 </r>
       <r>   -18.6717     0.0000    16.0000 </r>
       <r>   -18.5719     0.0000    16.0000 </r>
       <r>   -18.4721     0.0000    16.0000 </r>
       <r>   -18.3723     0.0000    16.0000 </r>
       <r>   -18.2725     0.0000    16.0000 </r>
       <r>   -18.1727     0.0000    16.0000 </r>
       <r>   -18.0729     0.0000    16.0000 </r>
       <r>   -17.9731     0.0000    16.0000 </r>
       <r>   -17.8733     0.0000    16.0000 </r>
       <r>   -17.7735     0.0000    16.0000 </r>
       <r>   -17.6737     0.0000    16.0000 </r>
       <r>   -17.5739     0.0000    16.0000 </r>
       <r>   -17.4741     0.0000    16.0000 </r>
       <r>   -17.3743     0.0000    16.0000 </r>
       <r>   -17.2745     0.0000    16.0000 </r>
       <r>   -17.1746     0.0000    16.0000 </r>
       <r>   -17.0748     0.0000    16.0000 </r>
       <r>   -16.9750     0.0000    16.0000 </r>
       <r>   -16.8752     0.0000    16.0000 </r>
       <r>   -16.7754     0.0000    16.0000 </r>
       <r>   -16.6756     0.0000    16.0000 </r>
       <r>   -16.5758     0.0000    16.0000 </r>
       <r>   -16.4760     0.0000    16.0000 </r>
       <r>   -16.3762     0.0000    16.0000 </r>
       <r>   -16.2764     0.0000    16.0000 </r>
       <r>   -16.1766     0.0000    16.0000 </r>
       <r>   -16.0768     0.0000    16.0000 </r>
       <r>   -15.9770     0.0000    16.0000 </r>
       <r>   -15.8772     0.0000    16.0000 </r>
       <r>   -15.7774     0.0000    16.0000 </r>
       <r>   -15.6776     0.0000    16.0000 </r>
       <r>   -15.5778     0.0000    16.0000 </r>
       <r>   -15.4780     0.0000    16.0000 </r>
       <r>   -15.3781     0.0000    16.0000 </r>
       <r>   -15.2783     0.0000    16.0000 </r>
       <r>   -15.1785     0.0000    16.0000 </r>
       <r>   -15.0787     0.0000    16.0000 </r>
       <r>   -14.9789     0.0000    16.0000 </r>
       <r>   -14.8791     0.0000    16.0000 </r>
       <r>   -14.7793     0.0000    16.0000 </r>
       <r>   -14.6795     0.0000    16.0000 </r>
       <r>   -14.5797     0.0000    16.0000 </r>
       <r>   -14.4799     0.0000    16.0000 </r>
       <r>   -14.3801     0.0000    16.0000 </r>
       <r>   -14.2803     0.0000    16.0000 </r>
       <r>   -14.1805     0.0000    16.0000 </r>
       <r>   -14.0807     0.0000    16.0000 </r>
       <r>   -13.9809     0.0000    16.0000 </r>
       <r>   -13.8811     0.0000    16.0000 </r>
       <r>   -13.7813     0.0000    16.0000 </r>
       <r>   -13.6814     0.0000    16.0000 </r>
       <r>   -13.5816     0.0000    16.0000 </r>
       <r>   -13.4818     0.0000    16.0000 </r>
       <r>   -13.3820     0.0000    16.0000 </r>
       <r>   -13.2822     0.0000    16.0000 </r>
       <r>   -13.1824     0.0000    16.0000 </r>
       <r>   -13.0826     0.0000    16.0000 </r>
       <r>   -12.9828     0.0000    16.0000 </r>
       <r>   -12.8830     0.0000    16.0000 </r>
       <r>   -12.7832     0.0000    16.0000 </r>
       <r>   -12.6834     0.0000    16.0000 </r>
       <r>   -12.5836     0.0000    16.0000 </r>
       <r>   -12.4838     0.0000    16.0000 </r>
       <r>   -12.3840     0.0000    16.0000 </r>
       <r>   -12.2842     0.0000    16.0000 </r>
       <r>   -12.1844     0.0000    16.0000 </r>
       <r>   -12.0846     0.0000    16.0000 </r>
       <r>   -11.9847     0.0000    16.0000 </r>
       <r>   -11.8849     0.0000    16.0000 </r>
       <r>   -11.7851     0.0000    16.0000 </r>
       <r>   -11.6853     0.0000    16.0000 </r>
       <r>   -11.5855     0.0000    16.0000 </r>
       <r>   -11.4857     0.0001    16.0000 </r>
       <r>   -11.3859     0.0024    16.0003 </r>
       <r>   -11.2861     0.0288    16.0031 </r>
       <r>   -11.1863     0.2146    16.0245 </r>
       <r>   -11.0865     0.9984    16.1242 </r>
       <r>   -10.9867     2.9522    16.4188 </r>
       <r>   -10.8869     5.8762    17.0053 </r>
       <r>   -10.7871     9.1701    17.9205 </r>
       <r>   -10.6873    14.1730    19.3351 </r>
       <r>   -10.5875    23.1043    21.6410 </r>
       <r>   -10.4877    35.6404    25.1982 </r>
       <r>   -10.3879    50.9465    30.2829 </r>
       <r>   -10.2880    69.1322    37.1827 </r>
       <r>   -10.1882    84.0394    45.5703 </r>
       <r>   -10.0884    82.9436    53.8486 </r>
       <r>    -9.9886    62.7534    60.1117 </r>
       <r>    -9.8888    36.0710    63.7118 </r>
       <r>    -9.7890    15.9332    65.3020 </r>
       <r>    -9.6892     5.3868    65.8397 </r>
       <r>    -9.5894     1.3431    65.9737 </r>
       <r>    -9.4896     0.2339    65.9971 </r>
       <r>    -9.3898     0.0271    65.9998 </r>
       <r>    -9.2900     0.0020    66.0000 </r>
       <r>    -9.1902     0.0001    66.0000 </r>
       <r>    -9.0904     0.0000    66.0000 </r>
       <r>    -8.9906     0.0000    66.0000 </r>
       <r>    -8.8908     0.0000    66.0000 </r>
       <r>    -8.7910     0.0000    66.0000 </r>
       <r>    -8.6912     0.0000    66.0000 </r>
       <r>    -8.5913     0.0000    66.0000 </r>
       <r>    -8.4915     0.0000    66.0000 </r>
       <r>    -8.3917     0.0000    66.0000 </r>
       <r>    -8.2919     0.0000    66.0000 </r>
       <r>    -8.1921     0.0000    66.0000 </r>
       <r>    -8.0923     0.0000    66.0000 </r>
       <r>    -7.9925     0.0000    66.0000 </r>
       <r>    -7.8927     0.0000    66.0000 </r>
       <r>    -7.7929     0.0000    66.0000 </r>
       <r>    -7.6931     0.0000    66.0000 </r>
       <r>    -7.5933     0.0000    66.0000 </r>
       <r>    -7.4935     0.0000    66.0000 </r>
       <r>    -7.3937     0.0005    66.0001 </r>
       <r>    -7.2939     0.0055    66.0006 </r>
       <r>    -7.1941     0.0427    66.0049 </r>
       <r>    -7.0943     0.2260    66.0274 </r>
       <r>    -6.9945     0.8441    66.1117 </r>
       <r>    -6.8947     2.3101    66.3422 </r>
       <r>    -6.7948     5.0664    66.8479 </r>
       <r>    -6.6950    10.7561    67.9214 </r>
       <r>    -6.5952    25.6822    70.4846 </r>
       <r>    -6.4954    60.0293    76.4759 </r>
       <r>    -6.3956   110.2211    87.4766 </r>
       <r>    -6.2958   142.6188   101.7108 </r>
       <r>    -6.1960   126.5533   114.3416 </r>
       <r>    -6.0962    79.3068   122.2568 </r>
       <r>    -5.9964    39.2094   126.1702 </r>
       <r>    -5.8966    18.7763   128.0441 </r>
       <r>    -5.7968     9.9843   129.0406 </r>
       <r>    -5.6970     5.4498   129.5846 </r>
       <r>    -5.5972     2.6688   129.8509 </r>
       <r>    -5.4974     1.0715   129.9579 </r>
       <r>    -5.3976     0.3323   129.9910 </r>
       <r>    -5.2978     0.0761   129.9986 </r>
       <r>    -5.1980     0.0124   129.9999 </r>
       <r>    -5.0981     0.0014   130.0000 </r>
       <r>    -4.9983     0.0001   130.0000 </r>
       <r>    -4.8985     0.0000   130.0000 </r>
       <r>    -4.7987     0.0000   130.0000 </r>
       <r>    -4.6989     0.0000   130.0000 </r>
       <r>    -4.5991     0.0000   130.0000 </r>
       <r>    -4.4993     0.0000   130.0000 </r>
       <r>    -4.3995     0.0000   130.0000 </r>
       <r>    -4.2997     0.0000   130.0000 </r>
       <r>    -4.1999     0.0000   130.0000 </r>
       <r>    -4.1001     0.0000   130.0000 </r>
       <r>    -4.0003     0.0000   130.0000 </r>
       <r>    -3.9005     0.0000   130.0000 </r>
       <r>    -3.8007     0.0000   130.0000 </r>
       <r>    -3.7009     0.0000   130.0000 </r>
       <r>    -3.6011     0.0000   130.0000 </r>
       <r>    -3.5013     0.0000   130.0000 </r>
       <r>    -3.4014     0.0000   130.0000 </r>
       <r>    -3.3016     0.0000   130.0000 </r>
       <r>    -3.2018     0.0000   130.0000 </r>
       <r>    -3.1020     0.0000   130.0000 </r>
       <r>    -3.0022     0.0000   130.0000 </r>
       <r>    -2.9024     0.0000   130.0000 </r>
       <r>    -2.8026     0.0000   130.0000 </r>
       <r>    -2.7028     0.0000   130.0000 </r>
       <r>    -2.6030     0.0002   130.0000 </r>
       <r>    -2.5032     0.0030   130.0003 </r>
       <r>    -2.4034     0.0336   130.0037 </r>
       <r>    -2.3036     0.2458   130.0282 </r>
       <r>    -2.2038     1.1870   130.1467 </r>
       <r>    -2.1040     3.8922   130.5351 </r>
       <r>    -2.0042     9.0072   131.4341 </r>
       <r>    -1.9044    15.5461   132.9857 </r>
       <r>    -1.8046    21.6681   135.1483 </r>
       <r>    -1.7047    27.0575   137.8488 </r>
       <r>    -1.6049    32.8647   141.1289 </r>
       <r>    -1.5051    38.3289   144.9543 </r>
       <r>    -1.4053    39.5070   148.8973 </r>
       <r>    -1.3055    33.6609   152.2569 </r>
       <r>    -1.2057    23.7665   154.6289 </r>
       <r>    -1.1059    17.0953   156.3351 </r>
       <r>    -1.0061    19.5848   158.2898 </r>
       <r>    -0.9063    30.8685   161.3707 </r>
       <r>    -0.8065    43.9043   165.7526 </r>
       <r>    -0.7067    50.8142   170.8241 </r>
       <r>    -0.6069    49.8899   175.8034 </r>
       <r>    -0.5071    46.2108   180.4155 </r>
       <r>    -0.4073    45.8366   184.9903 </r>
       <r>    -0.3075    51.0823   190.0886 </r>
       <r>    -0.2077    61.3255   196.2092 </r>
       <r>    -0.1079    74.6333   203.6581 </r>
       <r>    -0.0081    87.7617   212.4172 </r>
       <r>     0.0918    97.7030   222.1685 </r>
       <r>     0.1916   103.0592   232.4544 </r>
       <r>     0.2914   102.6209   242.6966 </r>
       <r>     0.3912    95.5690   252.2349 </r>
       <r>     0.4910    82.7511   260.4940 </r>
       <r>     0.5908    65.3309   267.0144 </r>
       <r>     0.6906    45.7060   271.5761 </r>
       <r>     0.7904    28.6599   274.4365 </r>
       <r>     0.8902    17.1940   276.1526 </r>
       <r>     0.9900    10.0955   277.1602 </r>
       <r>     1.0898     5.3268   277.6918 </r>
       <r>     1.1896     2.5598   277.9473 </r>
       <r>     1.2894     2.1323   278.1601 </r>
       <r>     1.3892     3.6652   278.5260 </r>
       <r>     1.4890     5.3491   279.0598 </r>
       <r>     1.5888     5.0505   279.5639 </r>
       <r>     1.6886     2.9831   279.8616 </r>
       <r>     1.7885     1.0969   279.9711 </r>
       <r>     1.8883     0.2507   279.9961 </r>
       <r>     1.9881     0.0356   279.9997 </r>
       <r>     2.0879     0.0031   280.0000 </r>
       <r>     2.1877     0.0002   280.0000 </r>
       <r>     2.2875     0.0000   280.0000 </r>
       <r>     2.3873     0.0000   280.0000 </r>
       <r>     2.4871     0.0001   280.0000 </r>
       <r>     2.5869     0.0013   280.0001 </r>
       <r>     2.6867     0.0149   280.0016 </r>
       <r>     2.7865     0.1146   280.0131 </r>
       <r>     2.8863     0.5807   280.0710 </r>
       <r>     2.9861     1.9811   280.2687 </r>
       <r>     3.0859     4.7062   280.7385 </r>
       <r>     3.1857     8.2402   281.5609 </r>
       <r>     3.2855    11.4024   282.6989 </r>
       <r>     3.3853    13.0017   283.9965 </r>
       <r>     3.4852    12.2759   285.2218 </r>
       <r>     3.5850    10.3253   286.2523 </r>
       <r>     3.6848    10.2500   287.2753 </r>
       <r>     3.7846    13.9353   288.6661 </r>
       <r>     3.8844    19.7843   290.6407 </r>
       <r>     3.9842    24.8864   293.1245 </r>
       <r>     4.0840    27.5638   295.8755 </r>
       <r>     4.1838    26.7356   298.5439 </r>
       <r>     4.2836    21.9358   300.7332 </r>
       <r>     4.3834    14.9588   302.2262 </r>
       <r>     4.4832     8.8108   303.1056 </r>
       <r>     4.5830     4.9069   303.5953 </r>
       <r>     4.6828     2.9494   303.8897 </r>
       <r>     4.7826     2.7521   304.1644 </r>
       <r>     4.8824     4.9394   304.6573 </r>
       <r>     4.9822    10.0358   305.6590 </r>
       <r>     5.0820    17.1594   307.3716 </r>
       <r>     5.1819    24.1751   309.7844 </r>
       <r>     5.2817    29.1356   312.6923 </r>
       <r>     5.3815    30.4631   315.7327 </r>
       <r>     5.4813    27.2384   318.4512 </r>
       <r>     5.5811    21.1651   320.5636 </r>
       <r>     5.6809    16.3637   322.1968 </r>
       <r>     5.7807    15.7679   323.7706 </r>
       <r>     5.8805    19.1031   325.6772 </r>
       <r>     5.9803    24.5097   328.1234 </r>
       <r>     6.0801    29.8074   331.0983 </r>
       <r>     6.1799    31.7721   334.2694 </r>
       <r>     6.2797    27.4031   337.0044 </r>
       <r>     6.3795    17.9121   338.7921 </r>
       <r>     6.4793     8.4927   339.6397 </r>
       <r>     6.5791     2.8392   339.9231 </r>
       <r>     6.6789     0.6560   339.9886 </r>
       <r>     6.7787     0.1031   339.9988 </r>
       <r>     6.8786     0.0109   339.9999 </r>
       <r>     6.9784     0.0008   340.0000 </r>
       <r>     7.0782     0.0000   340.0000 </r>
       <r>     7.1780     0.0000   340.0000 </r>
       <r>     7.2778     0.0000   340.0000 </r>
       <r>     7.3776     0.0000   340.0000 </r>
       <r>     7.4774     0.0000   340.0000 </r>
       <r>     7.5772     0.0000   340.0000 </r>
       <r>     7.6770     0.0000   340.0000 </r>
       <r>     7.7768     0.0000   340.0000 </r>
       <r>     7.8766     0.0000   340.0000 </r>
       <r>     7.9764     0.0000   340.0000 </r>
       <r>     8.0762     0.0000   340.0000 </r>
       <r>     8.1760     0.0000   340.0000 </r>
       <r>     8.2758     0.0000   340.0000 </r>
       <r>     8.3756     0.0000   340.0000 </r>
      </set>
     </set>
    </array>
   </total>
  </dos>
 </calculation>
 <structure name="finalpos" >
  <crystal>
   <varray name="basis" >
    <v>      12.57433319       0.00000000       0.00000000 </v>
    <v>       0.00000000      12.57433319       0.00000000 </v>
    <v>       0.00000000       0.00000000      12.57433319 </v>
   </varray>
   <i name="volume">   1988.17629733 </i>
   <varray name="rec_basis" >
    <v>       0.07952708       0.00000000       0.00000000 </v>
    <v>       0.00000000       0.07952708       0.00000000 </v>
    <v>       0.00000000       0.00000000       0.07952708 </v>
   </varray>
  </crystal>
  <varray name="positions" >
   <v>       0.01743131       0.01139627       0.01086023 </v>
   <v>       0.00824162       0.01314735       0.50750494 </v>
   <v>       0.01128005       0.50282468       0.00413378 </v>
   <v>       0.00619481       0.51067597       0.50194487 </v>
   <v>       0.50919591       0.99975993       0.00508065 </v>
   <v>       0.51053108       0.00532143       0.49863634 </v>
   <v>       0.50974003       0.50506594       0.01431922 </v>
   <v>       0.51195556       0.53553214       0.49682822 </v>
   <v>       0.26025531       0.22826518       0.22953947 </v>
   <v>       0.26502747       0.23816071       0.71701217 </v>
   <v>       0.23365394       0.71009730       0.24252509 </v>
   <v>       0.24328835       0.74316255       0.72734310 </v>
   <v>       0.75525906       0.28002125       0.27029844 </v>
   <v>       0.75365462       0.25782424       0.75697843 </v>
   <v>       0.76650433       0.80461436       0.27480246 </v>
   <v>       0.79888040       0.79127982       0.80230801 </v>
   <v>       0.97372061       0.05682292       0.25897466 </v>
   <v>       0.05387462       0.97835627       0.75941357 </v>
   <v>       0.04085030       0.45341044       0.25327906 </v>
   <v>       0.98174938       0.55047278       0.75345229 </v>
   <v>       0.55030042       0.05257047       0.25124057 </v>
   <v>       0.46171167      -0.01415306       0.75281815 </v>
   <v>       0.47185855       0.45149656       0.25617261 </v>
   <v>       0.51024416       0.44565407       0.76484828 </v>
   <v>       0.26343397       0.95901519       0.05801966 </v>
   <v>       0.25834448       0.02846435       0.46685523 </v>
   <v>       0.26167798       0.55738425       0.97692975 </v>
   <v>       0.25846462       0.49706450       0.52938815 </v>
   <v>       0.76434692       0.04799303       0.97878653 </v>
   <v>       0.75931582       0.97623287       0.55228467 </v>
   <v>       0.76149892       0.45046806       0.01141446 </v>
   <v>       0.75876258       0.53565990       0.44560785 </v>
   <v>       0.06665123       0.25676879       0.96365463 </v>
   <v>       0.98300975       0.26148053       0.55238610 </v>
   <v>       0.97803913       0.75629261       0.05457814 </v>
   <v>       0.02747310       0.76164955       0.46795230 </v>
   <v>       0.45762352       0.24810985       0.97786913 </v>
   <v>       0.53599488       0.25062128       0.52245457 </v>
   <v>       0.57160757       0.75203657       0.03140699 </v>
   <v>       0.48633533       0.76025376       0.39250750 </v>
   <v>       0.53948690       0.69478002       0.69458975 </v>
  </varray>
 </structure>
</modeling>
